! Sonnet Data File
! From: em Version : 15.52
! From Project: CPW_gap_coupler_3port_1um_FL_TS_6um
! Data is De-embedded 
! Data File Written: 08/14/2018 17:24:40
!< HDATE 08/14/2018 17:19:51
!< MDATE 08/14/2018 17:19:51
!< PARAMS
!< gap = 2.0
!< cpwS = 5.0
!< cpwS1 = 5.0
!< feedW = 12.0
!< feedS1 = 5.0
!< cond_length = 44.0
!< inner_length = 26.0
!< hangerW = 12.0000175
!< open_gap = 22.0
!< coupler_length = 50.0
!< END PARAMS
# GHZ S MA R 50.00000
4.00000000 0.021374 81.403 0.999771 -8.891 0.001124 89.060
           0.999771 -8.891 0.021374 80.818 0.001121 81.246
           0.001124 89.060 0.001121 81.246 0.999999 -2.017
!< P1 F=4.0 Eeff=(7.47584511 0.0) Z0=(59.3564362 0.0) R=0.0 C=0.0043333 
!< P2 F=4.0 Eeff=(7.6276531 0.0) Z0=(57.165907 0.0) R=0.0 C=0.00427574 
!< P3 F=4.0 Eeff=(7.40029907 0.0) Z0=(61.2573119 0.0) R=0.0 C=0.00440989 
4.02000000 0.021480 81.360 0.999769 -8.936 0.001130 89.055
           0.999769 -8.936 0.021480 80.772 0.001126 81.202
           0.001130 89.055 0.001126 81.202 0.999999 -2.027
4.04000000 0.021585 81.317 0.999766 -8.980 0.001135 89.050
           0.999766 -8.980 0.021586 80.726 0.001132 81.158
           0.001135 89.050 0.001132 81.158 0.999999 -2.037
4.06000000 0.021691 81.274 0.999764 -9.025 0.001141 89.045
           0.999764 -9.025 0.021692 80.680 0.001138 81.115
           0.001141 89.045 0.001138 81.115 0.999999 -2.047
4.08000000 0.021797 81.231 0.999762 -9.069 0.001147 89.040
           0.999762 -9.069 0.021797 80.634 0.001143 81.071
           0.001147 89.040 0.001143 81.071 0.999999 -2.057
4.10000000 0.021903 81.188 0.999759 -9.114 0.001152 89.035
           0.999759 -9.114 0.021903 80.588 0.001149 81.027
           0.001152 89.035 0.001149 81.027 0.999999 -2.068
4.12000000 0.022009 81.145 0.999757 -9.158 0.001158 89.031
           0.999757 -9.158 0.022009 80.542 0.001155 80.983
           0.001158 89.031 0.001155 80.983 0.999999 -2.078
4.14000000 0.022115 81.102 0.999755 -9.202 0.001164 89.026
           0.999755 -9.202 0.022115 80.496 0.001160 80.940
           0.001164 89.026 0.001160 80.940 0.999999 -2.088
4.16000000 0.022221 81.059 0.999752 -9.247 0.001169 89.021
           0.999752 -9.247 0.022221 80.451 0.001166 80.896
           0.001169 89.021 0.001166 80.896 0.999999 -2.098
4.18000000 0.022327 81.016 0.999750 -9.291 0.001175 89.016
           0.999750 -9.291 0.022327 80.405 0.001171 80.852
           0.001175 89.016 0.001171 80.852 0.999999 -2.108
4.20000000 0.022432 80.973 0.999748 -9.336 0.001181 89.011
           0.999748 -9.336 0.022433 80.359 0.001177 80.808
           0.001181 89.011 0.001177 80.808 0.999999 -2.118
4.22000000 0.022538 80.930 0.999745 -9.380 0.001186 89.006
           0.999745 -9.380 0.022538 80.313 0.001183 80.765
           0.001186 89.006 0.001183 80.765 0.999999 -2.128
4.24000000 0.022644 80.887 0.999743 -9.425 0.001192 89.001
           0.999743 -9.425 0.022644 80.267 0.001188 80.721
           0.001192 89.001 0.001188 80.721 0.999999 -2.138
4.26000000 0.022750 80.844 0.999740 -9.469 0.001198 88.996
           0.999740 -9.469 0.022750 80.221 0.001194 80.677
           0.001198 88.996 0.001194 80.677 0.999999 -2.148
4.28000000 0.022856 80.801 0.999738 -9.513 0.001203 88.992
           0.999738 -9.513 0.022856 80.175 0.001199 80.633
           0.001203 88.992 0.001199 80.633 0.999999 -2.158
4.30000000 0.022961 80.758 0.999736 -9.558 0.001209 88.987
           0.999736 -9.558 0.022962 80.129 0.001205 80.590
           0.001209 88.987 0.001205 80.590 0.999999 -2.168
4.32000000 0.023067 80.715 0.999733 -9.602 0.001214 88.982
           0.999733 -9.602 0.023067 80.083 0.001211 80.546
           0.001214 88.982 0.001211 80.546 0.999999 -2.178
4.34000000 0.023173 80.673 0.999731 -9.647 0.001220 88.977
           0.999731 -9.647 0.023173 80.037 0.001216 80.502
           0.001220 88.977 0.001216 80.502 0.999999 -2.189
4.36000000 0.023279 80.630 0.999728 -9.691 0.001226 88.972
           0.999728 -9.691 0.023279 79.992 0.001222 80.458
           0.001226 88.972 0.001222 80.458 0.999999 -2.199
4.38000000 0.023384 80.587 0.999726 -9.736 0.001231 88.967
           0.999726 -9.736 0.023384 79.946 0.001227 80.415
           0.001231 88.967 0.001227 80.415 0.999998 -2.209
4.40000000 0.023490 80.544 0.999723 -9.780 0.001237 88.962
           0.999723 -9.780 0.023490 79.900 0.001233 80.371
           0.001237 88.962 0.001233 80.371 0.999998 -2.219
4.42000000 0.023596 80.501 0.999721 -9.825 0.001243 88.957
           0.999721 -9.825 0.023596 79.854 0.001239 80.327
           0.001243 88.957 0.001239 80.327 0.999998 -2.229
4.44000000 0.023701 80.458 0.999718 -9.869 0.001248 88.952
           0.999718 -9.869 0.023701 79.808 0.001244 80.283
           0.001248 88.952 0.001244 80.283 0.999998 -2.239
4.46000000 0.023807 80.415 0.999716 -9.913 0.001254 88.947
           0.999716 -9.913 0.023807 79.762 0.001250 80.240
           0.001254 88.947 0.001250 80.240 0.999998 -2.249
4.48000000 0.023912 80.372 0.999713 -9.958 0.001260 88.943
           0.999713 -9.958 0.023913 79.716 0.001255 80.196
           0.001260 88.943 0.001255 80.196 0.999998 -2.259
4.50000000 0.024018 80.329 0.999711 -10.00 0.001265 88.938
           0.999711 -10.00 0.024018 79.670 0.001261 80.152
           0.001265 88.938 0.001261 80.152 0.999998 -2.269
4.52000000 0.024124 80.286 0.999708 -10.05 0.001271 88.933
           0.999708 -10.05 0.024124 79.624 0.001267 80.108
           0.001271 88.933 0.001267 80.108 0.999998 -2.279
4.54000000 0.024229 80.243 0.999706 -10.09 0.001277 88.928
           0.999706 -10.09 0.024229 79.578 0.001272 80.065
           0.001277 88.928 0.001272 80.065 0.999998 -2.289
4.56000000 0.024335 80.200 0.999703 -10.14 0.001282 88.923
           0.999703 -10.14 0.024335 79.533 0.001278 80.021
           0.001282 88.923 0.001278 80.021 0.999998 -2.300
4.58000000 0.024440 80.157 0.999700 -10.18 0.001288 88.918
           0.999700 -10.18 0.024440 79.487 0.001283 79.977
           0.001288 88.918 0.001283 79.977 0.999998 -2.310
4.60000000 0.024546 80.114 0.999698 -10.22 0.001294 88.913
           0.999698 -10.22 0.024546 79.441 0.001289 79.933
           0.001294 88.913 0.001289 79.933 0.999998 -2.320
4.62000000 0.024651 80.071 0.999695 -10.27 0.001299 88.908
           0.999695 -10.27 0.024651 79.395 0.001295 79.890
           0.001299 88.908 0.001295 79.890 0.999998 -2.330
4.64000000 0.024757 80.028 0.999693 -10.31 0.001305 88.903
           0.999693 -10.31 0.024757 79.349 0.001300 79.846
           0.001305 88.903 0.001300 79.846 0.999998 -2.340
4.66000000 0.024862 79.985 0.999690 -10.36 0.001311 88.898
           0.999690 -10.36 0.024862 79.303 0.001306 79.802
           0.001311 88.898 0.001306 79.802 0.999998 -2.350
4.68000000 0.024968 79.942 0.999687 -10.40 0.001316 88.893
           0.999687 -10.40 0.024968 79.257 0.001311 79.758
           0.001316 88.893 0.001311 79.758 0.999998 -2.360
4.70000000 0.025073 79.899 0.999685 -10.45 0.001322 88.888
           0.999685 -10.45 0.025073 79.211 0.001317 79.715
           0.001322 88.888 0.001317 79.715 0.999998 -2.370
4.72000000 0.025178 79.856 0.999682 -10.49 0.001328 88.883
           0.999682 -10.49 0.025179 79.165 0.001323 79.671
           0.001328 88.883 0.001323 79.671 0.999998 -2.380
4.74000000 0.025284 79.813 0.999679 -10.54 0.001333 88.878
           0.999679 -10.54 0.025284 79.120 0.001328 79.627
           0.001333 88.878 0.001328 79.627 0.999998 -2.390
4.76000000 0.025389 79.770 0.999677 -10.58 0.001339 88.873
           0.999677 -10.58 0.025390 79.074 0.001334 79.583
           0.001339 88.873 0.001334 79.583 0.999998 -2.400
4.78000000 0.025495 79.727 0.999674 -10.62 0.001345 88.868
           0.999674 -10.62 0.025495 79.028 0.001339 79.540
           0.001345 88.868 0.001339 79.540 0.999998 -2.410
4.80000000 0.025600 79.684 0.999671 -10.67 0.001350 88.863
           0.999671 -10.67 0.025600 78.982 0.001345 79.496
           0.001350 88.863 0.001345 79.496 0.999998 -2.421
4.82000000 0.025705 79.642 0.999669 -10.71 0.001356 88.859
           0.999669 -10.71 0.025706 78.936 0.001351 79.452
           0.001356 88.859 0.001351 79.452 0.999998 -2.431
4.84000000 0.025811 79.599 0.999666 -10.76 0.001362 88.854
           0.999666 -10.76 0.025811 78.890 0.001356 79.408
           0.001362 88.854 0.001356 79.408 0.999998 -2.441
4.86000000 0.025916 79.556 0.999663 -10.80 0.001367 88.849
           0.999663 -10.80 0.025916 78.844 0.001362 79.365
           0.001367 88.849 0.001362 79.365 0.999998 -2.451
4.88000000 0.026021 79.513 0.999660 -10.85 0.001373 88.844
           0.999660 -10.85 0.026021 78.798 0.001367 79.321
           0.001373 88.844 0.001367 79.321 0.999998 -2.461
!< P1 F=4.88 Eeff=(7.47586163 0.0) Z0=(59.3563496 0.0) R=0.0 C=0.0043333 
!< P2 F=4.88 Eeff=(7.62766841 0.0) Z0=(57.1658267 0.0) R=0.0 C=0.00427574 
!< P3 F=4.88 Eeff=(7.40031186 0.0) Z0=(61.2571964 0.0) R=0.0 C=0.00440989 
4.90000000 0.026126 79.470 0.999658 -10.89 0.001379 88.839
           0.999658 -10.89 0.026127 78.752 0.001373 79.277
           0.001379 88.839 0.001373 79.277 0.999998 -2.471
4.92000000 0.026232 79.427 0.999655 -10.94 0.001384 88.834
           0.999655 -10.94 0.026232 78.706 0.001379 79.233
           0.001384 88.834 0.001379 79.233 0.999998 -2.481
4.94000000 0.026337 79.384 0.999652 -10.98 0.001390 88.829
           0.999652 -10.98 0.026337 78.661 0.001384 79.190
           0.001390 88.829 0.001384 79.190 0.999998 -2.491
4.96000000 0.026442 79.341 0.999649 -11.02 0.001396 88.824
           0.999649 -11.02 0.026442 78.615 0.001390 79.146
           0.001396 88.824 0.001390 79.146 0.999998 -2.501
4.98000000 0.026547 79.298 0.999647 -11.07 0.001401 88.819
           0.999647 -11.07 0.026548 78.569 0.001395 79.102
           0.001401 88.819 0.001395 79.102 0.999998 -2.511
5.00000000 0.026653 79.255 0.999644 -11.11 0.001407 88.814
           0.999644 -11.11 0.026653 78.523 0.001401 79.058
           0.001407 88.814 0.001401 79.058 0.999998 -2.521
5.02000000 0.026758 79.212 0.999641 -11.16 0.001413 88.809
           0.999641 -11.16 0.026758 78.477 0.001407 79.015
           0.001413 88.809 0.001407 79.015 0.999998 -2.532
5.04000000 0.026863 79.169 0.999638 -11.20 0.001418 88.804
           0.999638 -11.20 0.026863 78.431 0.001412 78.971
           0.001418 88.804 0.001412 78.971 0.999998 -2.542
5.06000000 0.026968 79.126 0.999635 -11.25 0.001424 88.799
           0.999635 -11.25 0.026968 78.385 0.001418 78.927
           0.001424 88.799 0.001418 78.927 0.999998 -2.552
5.08000000 0.027073 79.083 0.999632 -11.29 0.001430 88.794
           0.999632 -11.29 0.027073 78.339 0.001423 78.883
           0.001430 88.794 0.001423 78.883 0.999998 -2.562
5.10000000 0.027178 79.040 0.999630 -11.34 0.001436 88.789
           0.999630 -11.34 0.027179 78.293 0.001429 78.840
           0.001436 88.789 0.001429 78.840 0.999998 -2.572
5.12000000 0.027283 78.997 0.999627 -11.38 0.001441 88.784
           0.999627 -11.38 0.027284 78.247 0.001435 78.796
           0.001441 88.784 0.001435 78.796 0.999998 -2.582
5.14000000 0.027388 78.954 0.999624 -11.42 0.001447 88.779
           0.999624 -11.42 0.027389 78.202 0.001440 78.752
           0.001447 88.779 0.001440 78.752 0.999998 -2.592
5.16000000 0.027493 78.911 0.999621 -11.47 0.001453 88.774
           0.999621 -11.47 0.027494 78.156 0.001446 78.709
           0.001453 88.774 0.001446 78.709 0.999998 -2.602
5.18000000 0.027598 78.868 0.999618 -11.51 0.001458 88.769
           0.999618 -11.51 0.027599 78.110 0.001451 78.665
           0.001458 88.769 0.001451 78.665 0.999998 -2.612
5.20000000 0.027703 78.825 0.999615 -11.56 0.001464 88.764
           0.999615 -11.56 0.027704 78.064 0.001457 78.621
           0.001464 88.764 0.001457 78.621 0.999998 -2.622
5.22000000 0.027808 78.783 0.999612 -11.60 0.001470 88.759
           0.999612 -11.60 0.027809 78.018 0.001463 78.577
           0.001470 88.759 0.001463 78.577 0.999998 -2.632
5.24000000 0.027913 78.740 0.999609 -11.65 0.001475 88.754
           0.999609 -11.65 0.027914 77.972 0.001468 78.534
           0.001475 88.754 0.001468 78.534 0.999998 -2.642
5.26000000 0.028018 78.697 0.999606 -11.69 0.001481 88.749
           0.999606 -11.69 0.028019 77.926 0.001474 78.490
           0.001481 88.749 0.001474 78.490 0.999998 -2.653
5.28000000 0.028123 78.654 0.999603 -11.74 0.001487 88.744
           0.999603 -11.74 0.028124 77.880 0.001479 78.446
           0.001487 88.744 0.001479 78.446 0.999998 -2.663
5.30000000 0.028228 78.611 0.999600 -11.78 0.001492 88.739
           0.999600 -11.78 0.028229 77.834 0.001485 78.402
           0.001492 88.739 0.001485 78.402 0.999998 -2.673
5.32000000 0.028333 78.568 0.999597 -11.82 0.001498 88.733
           0.999597 -11.82 0.028333 77.789 0.001491 78.359
           0.001498 88.733 0.001491 78.359 0.999998 -2.683
5.34000000 0.028438 78.525 0.999594 -11.87 0.001504 88.728
           0.999594 -11.87 0.028438 77.743 0.001496 78.315
           0.001504 88.728 0.001496 78.315 0.999998 -2.693
5.36000000 0.028543 78.482 0.999591 -11.91 0.001509 88.723
           0.999591 -11.91 0.028543 77.697 0.001502 78.271
           0.001509 88.723 0.001502 78.271 0.999998 -2.703
5.38000000 0.028648 78.439 0.999588 -11.96 0.001515 88.718
           0.999588 -11.96 0.028648 77.651 0.001507 78.227
           0.001515 88.718 0.001507 78.227 0.999998 -2.713
5.40000000 0.028752 78.396 0.999585 -12.00 0.001521 88.713
           0.999585 -12.00 0.028753 77.605 0.001513 78.184
           0.001521 88.713 0.001513 78.184 0.999998 -2.723
5.42000000 0.028857 78.353 0.999582 -12.05 0.001526 88.708
           0.999582 -12.05 0.028858 77.559 0.001519 78.140
           0.001526 88.708 0.001519 78.140 0.999998 -2.733
5.44000000 0.028962 78.310 0.999579 -12.09 0.001532 88.703
           0.999579 -12.09 0.028963 77.513 0.001524 78.096
           0.001532 88.703 0.001524 78.096 0.999998 -2.743
5.46000000 0.029067 78.267 0.999576 -12.14 0.001538 88.698
           0.999576 -12.14 0.029067 77.467 0.001530 78.052
           0.001538 88.698 0.001530 78.052 0.999998 -2.753
5.48000000 0.029172 78.224 0.999573 -12.18 0.001543 88.693
           0.999573 -12.18 0.029172 77.421 0.001535 78.009
           0.001543 88.693 0.001535 78.009 0.999998 -2.764
5.50000000 0.029276 78.181 0.999570 -12.22 0.001549 88.688
           0.999570 -12.22 0.029277 77.376 0.001541 77.965
           0.001549 88.688 0.001541 77.965 0.999998 -2.774
5.52000000 0.029381 78.138 0.999567 -12.27 0.001555 88.683
           0.999567 -12.27 0.029382 77.330 0.001547 77.921
           0.001555 88.683 0.001547 77.921 0.999998 -2.784
5.54000000 0.029486 78.095 0.999564 -12.31 0.001561 88.678
           0.999564 -12.31 0.029486 77.284 0.001552 77.877
           0.001561 88.678 0.001552 77.877 0.999998 -2.794
5.56000000 0.029590 78.052 0.999561 -12.36 0.001566 88.673
           0.999561 -12.36 0.029591 77.238 0.001558 77.834
           0.001566 88.673 0.001558 77.834 0.999998 -2.804
5.58000000 0.029695 78.010 0.999558 -12.40 0.001572 88.668
           0.999558 -12.40 0.029696 77.192 0.001563 77.790
           0.001572 88.668 0.001563 77.790 0.999998 -2.814
5.60000000 0.029800 77.967 0.999555 -12.45 0.001578 88.663
           0.999555 -12.45 0.029800 77.146 0.001569 77.746
           0.001578 88.663 0.001569 77.746 0.999998 -2.824
5.62000000 0.029904 77.924 0.999552 -12.49 0.001583 88.658
           0.999552 -12.49 0.029905 77.100 0.001575 77.703
           0.001583 88.658 0.001575 77.703 0.999998 -2.834
5.64000000 0.030009 77.881 0.999548 -12.53 0.001589 88.652
           0.999548 -12.53 0.030009 77.054 0.001580 77.659
           0.001589 88.652 0.001580 77.659 0.999997 -2.844
5.66000000 0.030114 77.838 0.999545 -12.58 0.001595 88.647
           0.999545 -12.58 0.030114 77.008 0.001586 77.615
           0.001595 88.647 0.001586 77.615 0.999997 -2.854
5.68000000 0.030218 77.795 0.999542 -12.62 0.001600 88.642
           0.999542 -12.62 0.030219 76.963 0.001591 77.571
           0.001600 88.642 0.001591 77.571 0.999997 -2.864
5.70000000 0.030323 77.752 0.999539 -12.67 0.001606 88.637
           0.999539 -12.67 0.030323 76.917 0.001597 77.528
           0.001606 88.637 0.001597 77.528 0.999997 -2.875
5.72000000 0.030427 77.709 0.999536 -12.71 0.001612 88.632
           0.999536 -12.71 0.030428 76.871 0.001603 77.484
           0.001612 88.632 0.001603 77.484 0.999997 -2.885
5.74000000 0.030532 77.666 0.999533 -12.76 0.001617 88.627
           0.999533 -12.76 0.030532 76.825 0.001608 77.440
           0.001617 88.627 0.001608 77.440 0.999997 -2.895
5.76000000 0.030636 77.623 0.999529 -12.80 0.001623 88.622
           0.999529 -12.80 0.030637 76.779 0.001614 77.396
           0.001623 88.622 0.001614 77.396 0.999997 -2.905
5.78000000 0.030741 77.580 0.999526 -12.85 0.001629 88.617
           0.999526 -12.85 0.030741 76.733 0.001619 77.353
           0.001629 88.617 0.001619 77.353 0.999997 -2.915
5.80000000 0.030845 77.537 0.999523 -12.89 0.001635 88.612
           0.999523 -12.89 0.030846 76.687 0.001625 77.309
           0.001635 88.612 0.001625 77.309 0.999997 -2.925
5.82000000 0.030950 77.494 0.999520 -12.93 0.001640 88.607
           0.999520 -12.93 0.030950 76.641 0.001631 77.265
           0.001640 88.607 0.001631 77.265 0.999997 -2.935
5.84000000 0.031054 77.451 0.999516 -12.98 0.001646 88.601
           0.999516 -12.98 0.031055 76.595 0.001636 77.221
           0.001646 88.601 0.001636 77.221 0.999997 -2.945
5.86000000 0.031158 77.408 0.999513 -13.02 0.001652 88.596
           0.999513 -13.02 0.031159 76.550 0.001642 77.178
           0.001652 88.596 0.001642 77.178 0.999997 -2.955
5.88000000 0.031263 77.365 0.999510 -13.07 0.001657 88.591
           0.999510 -13.07 0.031263 76.504 0.001647 77.134
           0.001657 88.591 0.001647 77.134 0.999997 -2.965
5.90000000 0.031367 77.323 0.999507 -13.11 0.001663 88.586
           0.999507 -13.11 0.031368 76.458 0.001653 77.090
           0.001663 88.586 0.001653 77.090 0.999997 -2.975
5.92000000 0.031471 77.280 0.999503 -13.16 0.001669 88.581
           0.999503 -13.16 0.031472 76.412 0.001659 77.047
           0.001669 88.581 0.001659 77.047 0.999997 -2.985
5.94000000 0.031576 77.237 0.999500 -13.20 0.001674 88.576
           0.999500 -13.20 0.031576 76.366 0.001664 77.003
           0.001674 88.576 0.001664 77.003 0.999997 -2.996
5.96000000 0.031680 77.194 0.999497 -13.25 0.001680 88.571
           0.999497 -13.25 0.031681 76.320 0.001670 76.959
           0.001680 88.571 0.001670 76.959 0.999997 -3.006
5.98000000 0.031784 77.151 0.999493 -13.29 0.001686 88.566
           0.999493 -13.29 0.031785 76.274 0.001675 76.915
           0.001686 88.566 0.001675 76.915 0.999997 -3.016
6.00000000 0.031889 77.108 0.999490 -13.33 0.001692 88.560
           0.999490 -13.33 0.031889 76.228 0.001681 76.872
           0.001692 88.560 0.001681 76.872 0.999997 -3.026
!< P1 F=6.0 Eeff=(7.47588731 0.0) Z0=(59.3562144 0.0) R=0.0 C=0.00433329 
!< P2 F=6.0 Eeff=(7.62769223 0.0) Z0=(57.1657013 0.0) R=0.0 C=0.00427574 
!< P3 F=6.0 Eeff=(7.40033138 0.0) Z0=(61.2570147 0.0) R=0.0 C=0.00440989 
6.02000000 0.031993 77.065 0.999487 -13.38 0.001697 88.555
           0.999487 -13.38 0.031993 76.182 0.001687 76.828
           0.001697 88.555 0.001687 76.828 0.999997 -3.036
6.04000000 0.032097 77.022 0.999483 -13.42 0.001703 88.550
           0.999483 -13.42 0.032098 76.137 0.001692 76.784
           0.001703 88.550 0.001692 76.784 0.999997 -3.046
6.06000000 0.032201 76.979 0.999480 -13.47 0.001709 88.545
           0.999480 -13.47 0.032202 76.091 0.001698 76.740
           0.001709 88.545 0.001698 76.740 0.999997 -3.056
6.08000000 0.032305 76.936 0.999477 -13.51 0.001714 88.540
           0.999477 -13.51 0.032306 76.045 0.001703 76.697
           0.001714 88.540 0.001703 76.697 0.999997 -3.066
6.10000000 0.032409 76.893 0.999473 -13.56 0.001720 88.535
           0.999473 -13.56 0.032410 75.999 0.001709 76.653
           0.001720 88.535 0.001709 76.653 0.999997 -3.076
6.12000000 0.032514 76.850 0.999470 -13.60 0.001726 88.529
           0.999470 -13.60 0.032514 75.953 0.001715 76.609
           0.001726 88.529 0.001715 76.609 0.999997 -3.086
6.14000000 0.032618 76.807 0.999466 -13.65 0.001732 88.524
           0.999466 -13.65 0.032618 75.907 0.001720 76.566
           0.001732 88.524 0.001720 76.566 0.999997 -3.096
6.16000000 0.032722 76.764 0.999463 -13.69 0.001737 88.519
           0.999463 -13.69 0.032722 75.861 0.001726 76.522
           0.001737 88.519 0.001726 76.522 0.999997 -3.107
6.18000000 0.032826 76.722 0.999460 -13.73 0.001743 88.514
           0.999460 -13.73 0.032826 75.815 0.001731 76.478
           0.001743 88.514 0.001731 76.478 0.999997 -3.117
6.20000000 0.032930 76.679 0.999456 -13.78 0.001749 88.509
           0.999456 -13.78 0.032930 75.769 0.001737 76.434
           0.001749 88.509 0.001737 76.434 0.999997 -3.127
6.22000000 0.033034 76.636 0.999453 -13.82 0.001754 88.504
           0.999453 -13.82 0.033034 75.724 0.001743 76.391
           0.001754 88.504 0.001743 76.391 0.999997 -3.137
6.24000000 0.033138 76.593 0.999449 -13.87 0.001760 88.498
           0.999449 -13.87 0.033138 75.678 0.001748 76.347
           0.001760 88.498 0.001748 76.347 0.999997 -3.147
6.26000000 0.033242 76.550 0.999446 -13.91 0.001766 88.493
           0.999446 -13.91 0.033242 75.632 0.001754 76.303
           0.001766 88.493 0.001754 76.303 0.999997 -3.157
6.28000000 0.033346 76.507 0.999442 -13.96 0.001772 88.488
           0.999442 -13.96 0.033346 75.586 0.001759 76.259
           0.001772 88.488 0.001759 76.259 0.999997 -3.167
6.30000000 0.033450 76.464 0.999439 -14.00 0.001777 88.483
           0.999439 -14.00 0.033450 75.540 0.001765 76.216
           0.001777 88.483 0.001765 76.216 0.999997 -3.177
6.32000000 0.033554 76.421 0.999435 -14.05 0.001783 88.478
           0.999435 -14.05 0.033554 75.494 0.001771 76.172
           0.001783 88.478 0.001771 76.172 0.999997 -3.187
6.34000000 0.033657 76.378 0.999432 -14.09 0.001789 88.472
           0.999432 -14.09 0.033658 75.448 0.001776 76.128
           0.001789 88.472 0.001776 76.128 0.999997 -3.197
6.36000000 0.033761 76.335 0.999428 -14.13 0.001794 88.467
           0.999428 -14.13 0.033762 75.402 0.001782 76.085
           0.001794 88.467 0.001782 76.085 0.999997 -3.207
6.38000000 0.033865 76.292 0.999425 -14.18 0.001800 88.462
           0.999425 -14.18 0.033866 75.357 0.001787 76.041
           0.001800 88.462 0.001787 76.041 0.999997 -3.218
6.40000000 0.033969 76.249 0.999421 -14.22 0.001806 88.457
           0.999421 -14.22 0.033970 75.311 0.001793 75.997
           0.001806 88.457 0.001793 75.997 0.999997 -3.228
6.42000000 0.034073 76.207 0.999418 -14.27 0.001812 88.452
           0.999418 -14.27 0.034073 75.265 0.001799 75.953
           0.001812 88.452 0.001799 75.953 0.999997 -3.238
6.44000000 0.034177 76.164 0.999414 -14.31 0.001817 88.446
           0.999414 -14.31 0.034177 75.219 0.001804 75.910
           0.001817 88.446 0.001804 75.910 0.999997 -3.248
6.46000000 0.034280 76.121 0.999411 -14.36 0.001823 88.441
           0.999411 -14.36 0.034281 75.173 0.001810 75.866
           0.001823 88.441 0.001810 75.866 0.999997 -3.258
6.48000000 0.034384 76.078 0.999407 -14.40 0.001829 88.436
           0.999407 -14.40 0.034385 75.127 0.001815 75.822
           0.001829 88.436 0.001815 75.822 0.999997 -3.268
6.50000000 0.034488 76.035 0.999404 -14.44 0.001834 88.431
           0.999404 -14.44 0.034488 75.081 0.001821 75.779
           0.001834 88.431 0.001821 75.779 0.999997 -3.278
6.52000000 0.034591 75.992 0.999400 -14.49 0.001840 88.425
           0.999400 -14.49 0.034592 75.035 0.001827 75.735
           0.001840 88.425 0.001827 75.735 0.999997 -3.288
6.54000000 0.034695 75.949 0.999396 -14.53 0.001846 88.420
           0.999396 -14.53 0.034696 74.990 0.001832 75.691
           0.001846 88.420 0.001832 75.691 0.999997 -3.298
6.56000000 0.034799 75.906 0.999393 -14.58 0.001852 88.415
           0.999393 -14.58 0.034799 74.944 0.001838 75.647
           0.001852 88.415 0.001838 75.647 0.999997 -3.308
6.58000000 0.034902 75.863 0.999389 -14.62 0.001857 88.410
           0.999389 -14.62 0.034903 74.898 0.001843 75.604
           0.001857 88.410 0.001843 75.604 0.999997 -3.318
6.60000000 0.035006 75.820 0.999385 -14.67 0.001863 88.404
           0.999385 -14.67 0.035007 74.852 0.001849 75.560
           0.001863 88.404 0.001849 75.560 0.999997 -3.329
6.62000000 0.035109 75.777 0.999382 -14.71 0.001869 88.399
           0.999382 -14.71 0.035110 74.806 0.001855 75.516
           0.001869 88.399 0.001855 75.516 0.999997 -3.339
6.64000000 0.035213 75.735 0.999378 -14.76 0.001874 88.394
           0.999378 -14.76 0.035214 74.760 0.001860 75.472
           0.001874 88.394 0.001860 75.472 0.999997 -3.349
6.66000000 0.035317 75.692 0.999375 -14.80 0.001880 88.389
           0.999375 -14.80 0.035317 74.714 0.001866 75.429
           0.001880 88.389 0.001866 75.429 0.999996 -3.359
6.68000000 0.035420 75.649 0.999371 -14.84 0.001886 88.383
           0.999371 -14.84 0.035421 74.668 0.001871 75.385
           0.001886 88.383 0.001871 75.385 0.999996 -3.369
6.70000000 0.035524 75.606 0.999367 -14.89 0.001892 88.378
           0.999367 -14.89 0.035524 74.623 0.001877 75.341
           0.001892 88.378 0.001877 75.341 0.999996 -3.379
6.72000000 0.035627 75.563 0.999363 -14.93 0.001897 88.373
           0.999363 -14.93 0.035628 74.577 0.001883 75.298
           0.001897 88.373 0.001883 75.298 0.999996 -3.389
6.74000000 0.035730 75.520 0.999360 -14.98 0.001903 88.368
           0.999360 -14.98 0.035731 74.531 0.001888 75.254
           0.001903 88.368 0.001888 75.254 0.999996 -3.399
6.76000000 0.035834 75.477 0.999356 -15.02 0.001909 88.362
           0.999356 -15.02 0.035835 74.485 0.001894 75.210
           0.001909 88.362 0.001894 75.210 0.999996 -3.409
6.78000000 0.035937 75.434 0.999352 -15.07 0.001915 88.357
           0.999352 -15.07 0.035938 74.439 0.001899 75.166
           0.001915 88.357 0.001899 75.166 0.999996 -3.419
6.80000000 0.036041 75.391 0.999349 -15.11 0.001920 88.352
           0.999349 -15.11 0.036041 74.393 0.001905 75.123
           0.001920 88.352 0.001905 75.123 0.999996 -3.429
6.82000000 0.036144 75.348 0.999345 -15.16 0.001926 88.346
           0.999345 -15.16 0.036145 74.347 0.001911 75.079
           0.001926 88.346 0.001911 75.079 0.999996 -3.440
6.84000000 0.036247 75.305 0.999341 -15.20 0.001932 88.341
           0.999341 -15.20 0.036248 74.301 0.001916 75.035
           0.001932 88.341 0.001916 75.035 0.999996 -3.450
6.86000000 0.036351 75.263 0.999337 -15.24 0.001937 88.336
           0.999337 -15.24 0.036351 74.256 0.001922 74.992
           0.001937 88.336 0.001922 74.992 0.999996 -3.460
6.88000000 0.036454 75.220 0.999334 -15.29 0.001943 88.330
           0.999334 -15.29 0.036455 74.210 0.001927 74.948
           0.001943 88.330 0.001927 74.948 0.999996 -3.470
6.90000000 0.036557 75.177 0.999330 -15.33 0.001949 88.325
           0.999330 -15.33 0.036558 74.164 0.001933 74.904
           0.001949 88.325 0.001933 74.904 0.999996 -3.480
6.92000000 0.036660 75.134 0.999326 -15.38 0.001955 88.320
           0.999326 -15.38 0.036661 74.118 0.001939 74.860
           0.001955 88.320 0.001939 74.860 0.999996 -3.490
6.94000000 0.036764 75.091 0.999322 -15.42 0.001960 88.315
           0.999322 -15.42 0.036764 74.072 0.001944 74.817
           0.001960 88.315 0.001944 74.817 0.999996 -3.500
6.96000000 0.036867 75.048 0.999318 -15.47 0.001966 88.309
           0.999318 -15.47 0.036868 74.026 0.001950 74.773
           0.001966 88.309 0.001950 74.773 0.999996 -3.510
6.98000000 0.036970 75.005 0.999315 -15.51 0.001972 88.304
           0.999315 -15.51 0.036971 73.980 0.001955 74.729
           0.001972 88.304 0.001955 74.729 0.999996 -3.520
7.00000000 0.037073 74.962 0.999311 -15.55 0.001978 88.299
           0.999311 -15.55 0.037074 73.934 0.001961 74.686
           0.001978 88.299 0.001961 74.686 0.999996 -3.530
7.02000000 0.037176 74.919 0.999307 -15.60 0.001983 88.293
           0.999307 -15.60 0.037177 73.889 0.001967 74.642
           0.001983 88.293 0.001967 74.642 0.999996 -3.540
7.04000000 0.037279 74.876 0.999303 -15.64 0.001989 88.288
           0.999303 -15.64 0.037280 73.843 0.001972 74.598
           0.001989 88.288 0.001972 74.598 0.999996 -3.551
7.06000000 0.037382 74.833 0.999299 -15.69 0.001995 88.283
           0.999299 -15.69 0.037383 73.797 0.001978 74.554
           0.001995 88.283 0.001978 74.554 0.999996 -3.561
7.08000000 0.037485 74.791 0.999295 -15.73 0.002001 88.277
           0.999295 -15.73 0.037486 73.751 0.001983 74.511
           0.002001 88.277 0.001983 74.511 0.999996 -3.571
7.10000000 0.037588 74.748 0.999291 -15.78 0.002006 88.272
           0.999291 -15.78 0.037589 73.705 0.001989 74.467
           0.002006 88.272 0.001989 74.467 0.999996 -3.581
7.12000000 0.037691 74.705 0.999288 -15.82 0.002012 88.267
           0.999288 -15.82 0.037692 73.659 0.001995 74.423
           0.002012 88.267 0.001995 74.423 0.999996 -3.591
7.14000000 0.037794 74.662 0.999284 -15.87 0.002018 88.261
           0.999284 -15.87 0.037795 73.613 0.002000 74.380
           0.002018 88.261 0.002000 74.380 0.999996 -3.601
7.16000000 0.037897 74.619 0.999280 -15.91 0.002024 88.256
           0.999280 -15.91 0.037898 73.567 0.002006 74.336
           0.002024 88.256 0.002006 74.336 0.999996 -3.611
7.18000000 0.038000 74.576 0.999276 -15.95 0.002029 88.250
           0.999276 -15.95 0.038001 73.522 0.002011 74.292
           0.002029 88.250 0.002011 74.292 0.999996 -3.621
7.20000000 0.038103 74.533 0.999272 -16.00 0.002035 88.245
           0.999272 -16.00 0.038104 73.476 0.002017 74.249
           0.002035 88.245 0.002017 74.249 0.999996 -3.631
7.22000000 0.038206 74.490 0.999268 -16.04 0.002041 88.240
           0.999268 -16.04 0.038207 73.430 0.002023 74.205
           0.002041 88.240 0.002023 74.205 0.999996 -3.641
7.24000000 0.038309 74.447 0.999264 -16.09 0.002047 88.234
           0.999264 -16.09 0.038310 73.384 0.002028 74.161
           0.002047 88.234 0.002028 74.161 0.999996 -3.651