! Sonnet Data File
! From: em Version : 15.52
! From Project: CPW_gap_coupler_3port_1um_FL_TS_6um
! Data is De-embedded 
! Data File Written: 08/14/2018 17:24:40
!< HDATE 08/14/2018 17:19:51
!< MDATE 08/14/2018 17:19:51
!< PARAMS
!< gap = 2.0
!< cpwS = 5.0
!< cpwS1 = 5.0
!< feedW = 12.0
!< feedS1 = 5.0
!< cond_length = 644.0
!< inner_length = 626.0
!< hangerW = 12.0000175
!< open_gap = 22.0
!< coupler_length = 650.0
!< END PARAMS
# GHZ S MA R 50.00000
4.00000000 0.026427 82.054 0.999435 -9.114 0.020788 71.799
           0.999435 -9.114 0.026324 80.636 0.020918 84.780
           0.020788 71.799 0.020918 84.780 0.999565 -15.78
!< P1 F=4.0 Eeff=(7.47584511 0.0) Z0=(59.3564362 0.0) R=0.0 C=0.0043333 
!< P2 F=4.0 Eeff=(8.19005061 0.0) Z0=(59.922994 0.0) R=0.0 C=0.00429298 
!< P3 F=4.0 Eeff=(7.44543123 0.0) Z0=(49.7708405 0.0) R=0.0 C=0.00397213 
4.02000000 0.026559 82.014 0.999429 -9.159 0.020892 71.708
           0.999429 -9.159 0.026454 80.589 0.021024 84.753
           0.020892 71.708 0.021024 84.753 0.999561 -15.86
4.04000000 0.026690 81.974 0.999423 -9.205 0.020996 71.617
           0.999423 -9.205 0.026584 80.543 0.021130 84.726
           0.020996 71.617 0.021130 84.726 0.999556 -15.93
4.06000000 0.026822 81.934 0.999417 -9.251 0.021100 71.526
           0.999417 -9.251 0.026715 80.496 0.021236 84.700
           0.021100 71.526 0.021236 84.700 0.999552 -16.01
4.08000000 0.026954 81.894 0.999412 -9.296 0.021203 71.435
           0.999412 -9.296 0.026845 80.449 0.021342 84.673
           0.021203 71.435 0.021342 84.673 0.999547 -16.09
4.10000000 0.027086 81.854 0.999406 -9.342 0.021307 71.344
           0.999406 -9.342 0.026975 80.402 0.021448 84.646
           0.021307 71.344 0.021448 84.646 0.999543 -16.17
4.12000000 0.027218 81.814 0.999400 -9.387 0.021411 71.252
           0.999400 -9.387 0.027106 80.355 0.021553 84.619
           0.021411 71.252 0.021553 84.619 0.999538 -16.25
4.14000000 0.027350 81.775 0.999394 -9.433 0.021515 71.161
           0.999394 -9.433 0.027236 80.308 0.021659 84.592
           0.021515 71.161 0.021659 84.592 0.999534 -16.33
4.16000000 0.027481 81.735 0.999388 -9.478 0.021619 71.070
           0.999388 -9.478 0.027366 80.261 0.021765 84.566
           0.021619 71.070 0.021765 84.566 0.999529 -16.41
4.18000000 0.027613 81.695 0.999382 -9.524 0.021722 70.979
           0.999382 -9.524 0.027496 80.215 0.021871 84.539
           0.021722 70.979 0.021871 84.539 0.999524 -16.49
4.20000000 0.027745 81.655 0.999376 -9.569 0.021826 70.888
           0.999376 -9.569 0.027626 80.168 0.021977 84.512
           0.021826 70.888 0.021977 84.512 0.999520 -16.57
4.22000000 0.027877 81.615 0.999370 -9.615 0.021930 70.797
           0.999370 -9.615 0.027757 80.121 0.022083 84.485
           0.021930 70.797 0.022083 84.485 0.999515 -16.65
4.24000000 0.028009 81.575 0.999364 -9.660 0.022034 70.706
           0.999364 -9.660 0.027887 80.074 0.022189 84.458
           0.022034 70.706 0.022189 84.458 0.999510 -16.73
4.26000000 0.028140 81.535 0.999358 -9.706 0.022138 70.615
           0.999358 -9.706 0.028017 80.027 0.022295 84.432
           0.022138 70.615 0.022295 84.432 0.999506 -16.81
4.28000000 0.028272 81.495 0.999352 -9.752 0.022241 70.523
           0.999352 -9.752 0.028147 79.980 0.022401 84.405
           0.022241 70.523 0.022401 84.405 0.999501 -16.88
4.30000000 0.028404 81.455 0.999346 -9.797 0.022345 70.432
           0.999346 -9.797 0.028277 79.934 0.022507 84.378
           0.022345 70.432 0.022507 84.378 0.999496 -16.96
4.32000000 0.028536 81.415 0.999340 -9.843 0.022449 70.341
           0.999340 -9.843 0.028407 79.887 0.022613 84.351
           0.022449 70.341 0.022613 84.351 0.999492 -17.04
4.34000000 0.028668 81.375 0.999334 -9.888 0.022553 70.250
           0.999334 -9.888 0.028537 79.840 0.022719 84.324
           0.022553 70.250 0.022719 84.324 0.999487 -17.12
4.36000000 0.028799 81.335 0.999328 -9.934 0.022657 70.159
           0.999328 -9.934 0.028667 79.793 0.022826 84.297
           0.022657 70.159 0.022826 84.297 0.999482 -17.20
4.38000000 0.028931 81.295 0.999322 -9.979 0.022760 70.068
           0.999322 -9.979 0.028797 79.746 0.022932 84.270
           0.022760 70.068 0.022932 84.270 0.999477 -17.28
4.40000000 0.029063 81.255 0.999316 -10.02 0.022864 69.976
           0.999316 -10.02 0.028927 79.699 0.023038 84.244
           0.022864 69.976 0.023038 84.244 0.999473 -17.36
4.42000000 0.029195 81.215 0.999309 -10.07 0.022968 69.885
           0.999309 -10.07 0.029057 79.653 0.023144 84.217
           0.022968 69.885 0.023144 84.217 0.999468 -17.44
4.44000000 0.029327 81.175 0.999303 -10.12 0.023072 69.794
           0.999303 -10.12 0.029187 79.606 0.023250 84.190
           0.023072 69.794 0.023250 84.190 0.999463 -17.52
4.46000000 0.029458 81.135 0.999297 -10.16 0.023176 69.703
           0.999297 -10.16 0.029317 79.559 0.023356 84.163
           0.023176 69.703 0.023356 84.163 0.999458 -17.60
4.48000000 0.029590 81.095 0.999290 -10.21 0.023280 69.612
           0.999290 -10.21 0.029446 79.512 0.023463 84.136
           0.023280 69.612 0.023463 84.136 0.999453 -17.68
4.50000000 0.029722 81.055 0.999284 -10.25 0.023383 69.521
           0.999284 -10.25 0.029576 79.465 0.023569 84.109
           0.023383 69.521 0.023569 84.109 0.999448 -17.76
4.52000000 0.029854 81.015 0.999278 -10.30 0.023487 69.429
           0.999278 -10.30 0.029706 79.419 0.023675 84.082
           0.023487 69.429 0.023675 84.082 0.999443 -17.84
4.54000000 0.029985 80.975 0.999271 -10.34 0.023591 69.338
           0.999271 -10.34 0.029836 79.372 0.023781 84.055
           0.023591 69.338 0.023781 84.055 0.999438 -17.92
4.56000000 0.030117 80.935 0.999265 -10.39 0.023695 69.247
           0.999265 -10.39 0.029966 79.325 0.023888 84.028
           0.023695 69.247 0.023888 84.028 0.999433 -17.99
4.58000000 0.030249 80.895 0.999258 -10.43 0.023799 69.156
           0.999258 -10.43 0.030095 79.278 0.023994 84.001
           0.023799 69.156 0.023994 84.001 0.999428 -18.07
4.60000000 0.030380 80.855 0.999252 -10.48 0.023902 69.065
           0.999252 -10.48 0.030225 79.231 0.024100 83.974
           0.023902 69.065 0.024100 83.974 0.999423 -18.15
4.62000000 0.030512 80.815 0.999245 -10.53 0.024006 68.973
           0.999245 -10.53 0.030355 79.185 0.024207 83.947
           0.024006 68.973 0.024207 83.947 0.999418 -18.23
4.64000000 0.030644 80.775 0.999239 -10.57 0.024110 68.882
           0.999239 -10.57 0.030484 79.138 0.024313 83.920
           0.024110 68.882 0.024313 83.920 0.999413 -18.31
4.66000000 0.030776 80.735 0.999232 -10.62 0.024214 68.791
           0.999232 -10.62 0.030614 79.091 0.024419 83.893
           0.024214 68.791 0.024419 83.893 0.999408 -18.39
4.68000000 0.030907 80.695 0.999226 -10.66 0.024318 68.700
           0.999226 -10.66 0.030744 79.044 0.024526 83.866
           0.024318 68.700 0.024526 83.866 0.999403 -18.47
4.70000000 0.031039 80.655 0.999219 -10.71 0.024421 68.608
           0.999219 -10.71 0.030873 78.998 0.024632 83.839
           0.024421 68.608 0.024632 83.839 0.999398 -18.55
4.72000000 0.031171 80.615 0.999213 -10.75 0.024525 68.517
           0.999213 -10.75 0.031003 78.951 0.024739 83.812
           0.024525 68.517 0.024739 83.812 0.999392 -18.63
4.74000000 0.031302 80.575 0.999206 -10.80 0.024629 68.426
           0.999206 -10.80 0.031132 78.904 0.024845 83.785
           0.024629 68.426 0.024845 83.785 0.999387 -18.71
4.76000000 0.031434 80.535 0.999199 -10.84 0.024733 68.335
           0.999199 -10.84 0.031262 78.857 0.024952 83.758
           0.024733 68.335 0.024952 83.758 0.999382 -18.79
4.78000000 0.031566 80.495 0.999192 -10.89 0.024837 68.244
           0.999192 -10.89 0.031391 78.810 0.025058 83.731
           0.024837 68.244 0.025058 83.731 0.999377 -18.87
4.80000000 0.031697 80.455 0.999186 -10.94 0.024940 68.152
           0.999186 -10.94 0.031521 78.764 0.025165 83.704
           0.024940 68.152 0.025165 83.704 0.999372 -18.95
4.82000000 0.031829 80.415 0.999179 -10.98 0.025044 68.061
           0.999179 -10.98 0.031650 78.717 0.025271 83.677
           0.025044 68.061 0.025271 83.677 0.999366 -19.03
4.84000000 0.031961 80.375 0.999172 -11.03 0.025148 67.970
           0.999172 -11.03 0.031780 78.670 0.025378 83.650
           0.025148 67.970 0.025378 83.650 0.999361 -19.11
4.86000000 0.032092 80.335 0.999165 -11.07 0.025252 67.879
           0.999165 -11.07 0.031909 78.623 0.025484 83.623
           0.025252 67.879 0.025484 83.623 0.999356 -19.18
4.88000000 0.032224 80.295 0.999158 -11.12 0.025355 67.787
           0.999158 -11.12 0.032039 78.577 0.025591 83.596
           0.025355 67.787 0.025591 83.596 0.999350 -19.26
4.90000000 0.032356 80.255 0.999152 -11.16 0.025459 67.696
           0.999152 -11.16 0.032168 78.530 0.025698 83.569
           0.025459 67.696 0.025698 83.569 0.999345 -19.34
4.92000000 0.032487 80.215 0.999145 -11.21 0.025563 67.605
           0.999145 -11.21 0.032297 78.483 0.025804 83.542
           0.025563 67.605 0.025804 83.542 0.999340 -19.42
4.94000000 0.032619 80.175 0.999138 -11.25 0.025667 67.514
           0.999138 -11.25 0.032426 78.436 0.025911 83.514
           0.025667 67.514 0.025911 83.514 0.999334 -19.50
4.96000000 0.032751 80.135 0.999131 -11.30 0.025771 67.422
           0.999131 -11.30 0.032556 78.390 0.026018 83.487
           0.025771 67.422 0.026018 83.487 0.999329 -19.58
4.98000000 0.032882 80.095 0.999124 -11.35 0.025874 67.331
           0.999124 -11.35 0.032685 78.343 0.026124 83.460
           0.025874 67.331 0.026124 83.460 0.999323 -19.66
5.00000000 0.033014 80.055 0.999117 -11.39 0.025978 67.240
           0.999117 -11.39 0.032814 78.296 0.026231 83.433
           0.025978 67.240 0.026231 83.433 0.999318 -19.74
5.02000000 0.033146 80.015 0.999110 -11.44 0.026082 67.148
           0.999110 -11.44 0.032943 78.249 0.026338 83.406
           0.026082 67.148 0.026338 83.406 0.999312 -19.82
5.04000000 0.033277 79.975 0.999103 -11.48 0.026186 67.057
           0.999103 -11.48 0.033073 78.203 0.026445 83.379
           0.026186 67.057 0.026445 83.379 0.999307 -19.90
5.06000000 0.033409 79.935 0.999095 -11.53 0.026289 66.966
           0.999095 -11.53 0.033202 78.156 0.026551 83.351
           0.026289 66.966 0.026551 83.351 0.999301 -19.98
5.08000000 0.033540 79.895 0.999088 -11.57 0.026393 66.875
           0.999088 -11.57 0.033331 78.109 0.026658 83.324
           0.026393 66.875 0.026658 83.324 0.999296 -20.06
5.10000000 0.033672 79.855 0.999081 -11.62 0.026497 66.783
           0.999081 -11.62 0.033460 78.062 0.026765 83.297
           0.026497 66.783 0.026765 83.297 0.999290 -20.14
5.12000000 0.033804 79.815 0.999074 -11.66 0.026601 66.692
           0.999074 -11.66 0.033589 78.016 0.026872 83.270
           0.026601 66.692 0.026872 83.270 0.999285 -20.22
5.14000000 0.033935 79.775 0.999067 -11.71 0.026705 66.601
           0.999067 -11.71 0.033718 77.969 0.026979 83.243
           0.026705 66.601 0.026979 83.243 0.999279 -20.30
5.16000000 0.034067 79.735 0.999060 -11.76 0.026808 66.510
           0.999060 -11.76 0.033847 77.922 0.027086 83.215
           0.026808 66.510 0.027086 83.215 0.999273 -20.38
5.18000000 0.034198 79.695 0.999052 -11.80 0.026912 66.418
           0.999052 -11.80 0.033976 77.875 0.027193 83.188
           0.026912 66.418 0.027193 83.188 0.999268 -20.46
5.20000000 0.034330 79.655 0.999045 -11.85 0.027016 66.327
           0.999045 -11.85 0.034105 77.829 0.027300 83.161
           0.027016 66.327 0.027300 83.161 0.999262 -20.53
5.22000000 0.034461 79.615 0.999038 -11.89 0.027120 66.236
           0.999038 -11.89 0.034234 77.782 0.027407 83.134
           0.027120 66.236 0.027407 83.134 0.999256 -20.61
5.24000000 0.034593 79.575 0.999030 -11.94 0.027223 66.144
           0.999030 -11.94 0.034363 77.735 0.027514 83.106
           0.027223 66.144 0.027514 83.106 0.999250 -20.69
5.26000000 0.034725 79.535 0.999023 -11.98 0.027327 66.053
           0.999023 -11.98 0.034492 77.688 0.027621 83.079
           0.027327 66.053 0.027621 83.079 0.999245 -20.77
5.28000000 0.034856 79.495 0.999016 -12.03 0.027431 65.962
           0.999016 -12.03 0.034621 77.642 0.027728 83.052
           0.027431 65.962 0.027728 83.052 0.999239 -20.85
5.30000000 0.034988 79.455 0.999008 -12.07 0.027535 65.870
           0.999008 -12.07 0.034750 77.595 0.027835 83.024
           0.027535 65.870 0.027835 83.024 0.999233 -20.93
5.32000000 0.035119 79.415 0.999001 -12.12 0.027638 65.779
           0.999001 -12.12 0.034879 77.548 0.027942 82.997
           0.027638 65.779 0.027942 82.997 0.999227 -21.01
5.34000000 0.035251 79.375 0.998993 -12.17 0.027742 65.688
           0.998993 -12.17 0.035007 77.501 0.028049 82.970
           0.027742 65.688 0.028049 82.970 0.999221 -21.09
5.36000000 0.035382 79.335 0.998986 -12.21 0.027846 65.596
           0.998986 -12.21 0.035136 77.455 0.028156 82.942
           0.027846 65.596 0.028156 82.942 0.999215 -21.17
5.38000000 0.035514 79.295 0.998978 -12.26 0.027950 65.505
           0.998978 -12.26 0.035265 77.408 0.028263 82.915
           0.027950 65.505 0.028263 82.915 0.999210 -21.25
5.40000000 0.035645 79.254 0.998971 -12.30 0.028053 65.414
           0.998971 -12.30 0.035394 77.361 0.028370 82.888
           0.028053 65.414 0.028370 82.888 0.999204 -21.33
5.42000000 0.035777 79.214 0.998963 -12.35 0.028157 65.322
           0.998963 -12.35 0.035522 77.314 0.028478 82.860
           0.028157 65.322 0.028478 82.860 0.999198 -21.41
5.44000000 0.035908 79.174 0.998955 -12.39 0.028261 65.231
           0.998955 -12.39 0.035651 77.268 0.028585 82.833
           0.028261 65.231 0.028585 82.833 0.999192 -21.49
5.46000000 0.036040 79.134 0.998948 -12.44 0.028364 65.140
           0.998948 -12.44 0.035780 77.221 0.028692 82.805
           0.028364 65.140 0.028692 82.805 0.999186 -21.57
5.48000000 0.036171 79.094 0.998940 -12.48 0.028468 65.049
           0.998940 -12.48 0.035908 77.174 0.028799 82.778
           0.028468 65.049 0.028799 82.778 0.999180 -21.65
5.50000000 0.036303 79.054 0.998932 -12.53 0.028572 64.957
           0.998932 -12.53 0.036037 77.128 0.028907 82.750
           0.028572 64.957 0.028907 82.750 0.999174 -21.73
5.52000000 0.036434 79.014 0.998925 -12.57 0.028676 64.866
           0.998925 -12.57 0.036165 77.081 0.029014 82.723
           0.028676 64.866 0.029014 82.723 0.999168 -21.81
5.54000000 0.036566 78.974 0.998917 -12.62 0.028779 64.774
           0.998917 -12.62 0.036294 77.034 0.029121 82.696
           0.028779 64.774 0.029121 82.696 0.999161 -21.89
!< P1 F=5.54 Eeff=(7.47587613 0.0) Z0=(59.3562733 0.0) R=0.0 C=0.00433329 
!< P2 F=5.54 Eeff=(8.19011065 0.0) Z0=(59.9229786 0.0) R=0.0 C=0.00429298 
!< P3 F=5.54 Eeff=(7.4454365 0.0) Z0=(49.7706531 0.0) R=0.0 C=0.00397212 
5.56000000 0.036697 78.934 0.998909 -12.67 0.028883 64.683
           0.998909 -12.67 0.036422 76.987 0.029229 82.668
           0.028883 64.683 0.029229 82.668 0.999155 -21.97
5.58000000 0.036828 78.894 0.998901 -12.71 0.028987 64.592
           0.998901 -12.71 0.036551 76.941 0.029336 82.641
           0.028987 64.592 0.029336 82.641 0.999149 -22.05
5.60000000 0.036960 78.854 0.998893 -12.76 0.029091 64.500
           0.998893 -12.76 0.036679 76.894 0.029443 82.613
           0.029091 64.500 0.029443 82.613 0.999143 -22.13
5.62000000 0.037091 78.813 0.998885 -12.80 0.029194 64.409
           0.998885 -12.80 0.036808 76.847 0.029551 82.586
           0.029194 64.409 0.029551 82.586 0.999137 -22.20
5.64000000 0.037223 78.773 0.998878 -12.85 0.029298 64.318
           0.998878 -12.85 0.036936 76.800 0.029658 82.558
           0.029298 64.318 0.029658 82.558 0.999131 -22.28
5.66000000 0.037354 78.733 0.998870 -12.89 0.029402 64.226
           0.998870 -12.89 0.037065 76.754 0.029766 82.531
           0.029402 64.226 0.029766 82.531 0.999124 -22.36
5.68000000 0.037486 78.693 0.998862 -12.94 0.029505 64.135
           0.998862 -12.94 0.037193 76.707 0.029873 82.503
           0.029505 64.135 0.029873 82.503 0.999118 -22.44
5.70000000 0.037617 78.653 0.998854 -12.98 0.029609 64.044
           0.998854 -12.98 0.037321 76.660 0.029981 82.475
           0.029609 64.044 0.029981 82.475 0.999112 -22.52
5.72000000 0.037748 78.613 0.998846 -13.03 0.029713 63.952
           0.998846 -13.03 0.037449 76.613 0.030088 82.448
           0.029713 63.952 0.030088 82.448 0.999106 -22.60
5.74000000 0.037880 78.573 0.998838 -13.08 0.029816 63.861
           0.998838 -13.08 0.037578 76.567 0.030196 82.420
           0.029816 63.861 0.030196 82.420 0.999099 -22.68
5.76000000 0.038011 78.533 0.998830 -13.12 0.029920 63.770
           0.998830 -13.12 0.037706 76.520 0.030303 82.393
           0.029920 63.770 0.030303 82.393 0.999093 -22.76
5.78000000 0.038142 78.492 0.998821 -13.17 0.030024 63.678
           0.998821 -13.17 0.037834 76.473 0.030411 82.365
           0.030024 63.678 0.030411 82.365 0.999087 -22.84
5.80000000 0.038274 78.452 0.998813 -13.21 0.030128 63.587
           0.998813 -13.21 0.037962 76.427 0.030519 82.337
           0.030128 63.587 0.030519 82.337 0.999080 -22.92
5.82000000 0.038405 78.412 0.998805 -13.26 0.030231 63.495
           0.998805 -13.26 0.038091 76.380 0.030626 82.310
           0.030231 63.495 0.030626 82.310 0.999074 -23.00
5.84000000 0.038537 78.372 0.998797 -13.30 0.030335 63.404
           0.998797 -13.30 0.038219 76.333 0.030734 82.282
           0.030335 63.404 0.030734 82.282 0.999067 -23.08
5.86000000 0.038668 78.332 0.998789 -13.35 0.030439 63.313
           0.998789 -13.35 0.038347 76.286 0.030842 82.254
           0.030439 63.313 0.030842 82.254 0.999061 -23.16
5.88000000 0.038799 78.292 0.998781 -13.39 0.030542 63.221
           0.998781 -13.39 0.038475 76.240 0.030949 82.227
           0.030542 63.221 0.030949 82.227 0.999054 -23.24
5.90000000 0.038931 78.252 0.998772 -13.44 0.030646 63.130
           0.998772 -13.44 0.038603 76.193 0.031057 82.199
           0.030646 63.130 0.031057 82.199 0.999048 -23.32
5.92000000 0.039062 78.211 0.998764 -13.49 0.030750 63.039
           0.998764 -13.49 0.038731 76.146 0.031165 82.171
           0.030750 63.039 0.031165 82.171 0.999041 -23.40
5.94000000 0.039193 78.171 0.998756 -13.53 0.030853 62.947
           0.998756 -13.53 0.038859 76.099 0.031273 82.144
           0.030853 62.947 0.031273 82.144 0.999035 -23.48
5.96000000 0.039325 78.131 0.998747 -13.58 0.030957 62.856
           0.998747 -13.58 0.038987 76.053 0.031381 82.116
           0.030957 62.856 0.031381 82.116 0.999028 -23.56
5.98000000 0.039456 78.091 0.998739 -13.62 0.031061 62.764
           0.998739 -13.62 0.039115 76.006 0.031489 82.088
           0.031061 62.764 0.031489 82.088 0.999022 -23.64
6.00000000 0.039587 78.051 0.998730 -13.67 0.031164 62.673
           0.998730 -13.67 0.039243 75.959 0.031596 82.061
           0.031164 62.673 0.031596 82.061 0.999015 -23.72
6.02000000 0.039719 78.010 0.998722 -13.71 0.031268 62.582
           0.998722 -13.71 0.039371 75.912 0.031704 82.033
           0.031268 62.582 0.031704 82.033 0.999008 -23.80
6.04000000 0.039850 77.970 0.998714 -13.76 0.031372 62.490
           0.998714 -13.76 0.039498 75.866 0.031812 82.005
           0.031372 62.490 0.031812 82.005 0.999002 -23.88
6.06000000 0.039981 77.930 0.998705 -13.80 0.031475 62.399
           0.998705 -13.80 0.039626 75.819 0.031920 81.977
           0.031475 62.399 0.031920 81.977 0.998995 -23.96
6.08000000 0.040112 77.890 0.998697 -13.85 0.031579 62.307
           0.998697 -13.85 0.039754 75.772 0.032028 81.949
           0.031579 62.307 0.032028 81.949 0.998988 -24.04
6.10000000 0.040244 77.850 0.998688 -13.89 0.031683 62.216
           0.998688 -13.89 0.039882 75.726 0.032136 81.922
           0.031683 62.216 0.032136 81.922 0.998982 -24.12
6.12000000 0.040375 77.809 0.998679 -13.94 0.031786 62.125
           0.998679 -13.94 0.040009 75.679 0.032244 81.894
           0.031786 62.125 0.032244 81.894 0.998975 -24.20
6.14000000 0.040506 77.769 0.998671 -13.99 0.031890 62.033
           0.998671 -13.99 0.040137 75.632 0.032352 81.866
           0.031890 62.033 0.032352 81.866 0.998968 -24.28
6.16000000 0.040637 77.729 0.998662 -14.03 0.031993 61.942
           0.998662 -14.03 0.040265 75.585 0.032460 81.838
           0.031993 61.942 0.032460 81.838 0.998961 -24.36
6.18000000 0.040769 77.689 0.998654 -14.08 0.032097 61.850
           0.998654 -14.08 0.040392 75.539 0.032568 81.810
           0.032097 61.850 0.032568 81.810 0.998954 -24.44
6.20000000 0.040900 77.649 0.998645 -14.12 0.032201 61.759
           0.998645 -14.12 0.040520 75.492 0.032677 81.782
           0.032201 61.759 0.032677 81.782 0.998947 -24.52
6.22000000 0.041031 77.608 0.998636 -14.17 0.032304 61.667
           0.998636 -14.17 0.040648 75.445 0.032785 81.754
           0.032304 61.667 0.032785 81.754 0.998941 -24.60
6.24000000 0.041162 77.568 0.998627 -14.21 0.032408 61.576
           0.998627 -14.21 0.040775 75.398 0.032893 81.726
           0.032408 61.576 0.032893 81.726 0.998934 -24.67
6.26000000 0.041294 77.528 0.998619 -14.26 0.032512 61.485
           0.998619 -14.26 0.040903 75.352 0.033001 81.699
           0.032512 61.485 0.033001 81.699 0.998927 -24.75
6.28000000 0.041425 77.488 0.998610 -14.30 0.032615 61.393
           0.998610 -14.30 0.041030 75.305 0.033109 81.671
           0.032615 61.393 0.033109 81.671 0.998920 -24.83
6.30000000 0.041556 77.447 0.998601 -14.35 0.032719 61.302
           0.998601 -14.35 0.041158 75.258 0.033218 81.643
           0.032719 61.302 0.033218 81.643 0.998913 -24.91
6.32000000 0.041687 77.407 0.998592 -14.40 0.032822 61.210
           0.998592 -14.40 0.041285 75.211 0.033326 81.615
           0.032822 61.210 0.033326 81.615 0.998906 -24.99
6.34000000 0.041818 77.367 0.998583 -14.44 0.032926 61.119
           0.998583 -14.44 0.041413 75.165 0.033434 81.587
           0.032926 61.119 0.033434 81.587 0.998899 -25.07
6.36000000 0.041949 77.327 0.998574 -14.49 0.033030 61.027
           0.998574 -14.49 0.041540 75.118 0.033542 81.559
           0.033030 61.027 0.033542 81.559 0.998892 -25.15
6.38000000 0.042081 77.286 0.998565 -14.53 0.033133 60.936
           0.998565 -14.53 0.041667 75.071 0.033651 81.531
           0.033133 60.936 0.033651 81.531 0.998885 -25.23
6.40000000 0.042212 77.246 0.998556 -14.58 0.033237 60.844
           0.998556 -14.58 0.041795 75.024 0.033759 81.503
           0.033237 60.844 0.033759 81.503 0.998877 -25.31
6.42000000 0.042343 77.206 0.998547 -14.62 0.033341 60.753
           0.998547 -14.62 0.041922 74.978 0.033868 81.475
           0.033341 60.753 0.033868 81.475 0.998870 -25.39
6.44000000 0.042474 77.165 0.998538 -14.67 0.033444 60.662
           0.998538 -14.67 0.042049 74.931 0.033976 81.447
           0.033444 60.662 0.033976 81.447 0.998863 -25.47
6.46000000 0.042605 77.125 0.998529 -14.71 0.033548 60.570
           0.998529 -14.71 0.042176 74.884 0.034085 81.419
           0.033548 60.570 0.034085 81.419 0.998856 -25.55
6.48000000 0.042736 77.085 0.998520 -14.76 0.033651 60.479
           0.998520 -14.76 0.042304 74.837 0.034193 81.391
           0.033651 60.479 0.034193 81.391 0.998849 -25.63
6.50000000 0.042867 77.045 0.998511 -14.80 0.033755 60.387
           0.998511 -14.80 0.042431 74.791 0.034302 81.362
           0.033755 60.387 0.034302 81.362 0.998842 -25.71
6.52000000 0.042999 77.004 0.998502 -14.85 0.033858 60.296
           0.998502 -14.85 0.042558 74.744 0.034410 81.334
           0.033858 60.296 0.034410 81.334 0.998834 -25.79
6.54000000 0.043130 76.964 0.998493 -14.90 0.033962 60.204
           0.998493 -14.90 0.042685 74.697 0.034519 81.306
           0.033962 60.204 0.034519 81.306 0.998827 -25.87
6.56000000 0.043261 76.924 0.998484 -14.94 0.034066 60.113
           0.998484 -14.94 0.042812 74.650 0.034627 81.278
           0.034066 60.113 0.034627 81.278 0.998820 -25.95
6.58000000 0.043392 76.883 0.998474 -14.99 0.034169 60.021
           0.998474 -14.99 0.042939 74.604 0.034736 81.250
           0.034169 60.021 0.034736 81.250 0.998812 -26.03
6.60000000 0.043523 76.843 0.998465 -15.03 0.034273 59.930
           0.998465 -15.03 0.043066 74.557 0.034844 81.222
           0.034273 59.930 0.034844 81.222 0.998805 -26.11
6.62000000 0.043654 76.803 0.998456 -15.08 0.034376 59.838
           0.998456 -15.08 0.043193 74.510 0.034953 81.194
           0.034376 59.838 0.034953 81.194 0.998798 -26.19
6.64000000 0.043785 76.762 0.998446 -15.12 0.034480 59.747
           0.998446 -15.12 0.043320 74.463 0.035062 81.165
           0.034480 59.747 0.035062 81.165 0.998790 -26.27
6.66000000 0.043916 76.722 0.998437 -15.17 0.034583 59.655
           0.998437 -15.17 0.043447 74.417 0.035171 81.137
           0.034583 59.655 0.035171 81.137 0.998783 -26.35
6.68000000 0.044047 76.682 0.998428 -15.21 0.034687 59.564
           0.998428 -15.21 0.043574 74.370 0.035279 81.109
           0.034687 59.564 0.035279 81.109 0.998776 -26.43
6.70000000 0.044178 76.641 0.998418 -15.26 0.034791 59.472
           0.998418 -15.26 0.043701 74.323 0.035388 81.081
           0.034791 59.472 0.035388 81.081 0.998768 -26.51
6.72000000 0.044309 76.601 0.998409 -15.31 0.034894 59.381
           0.998409 -15.31 0.043828 74.276 0.035497 81.053
           0.034894 59.381 0.035497 81.053 0.998761 -26.59
6.74000000 0.044440 76.560 0.998399 -15.35 0.034998 59.289
           0.998399 -15.35 0.043954 74.230 0.035606 81.024
           0.034998 59.289 0.035606 81.024 0.998753 -26.67
6.76000000 0.044571 76.520 0.998390 -15.40 0.035101 59.198
           0.998390 -15.40 0.044081 74.183 0.035715 80.996
           0.035101 59.198 0.035715 80.996 0.998746 -26.75
6.78000000 0.044702 76.480 0.998380 -15.44 0.035205 59.106
           0.998380 -15.44 0.044208 74.136 0.035823 80.968
           0.035205 59.106 0.035823 80.968 0.998738 -26.83
6.80000000 0.044833 76.439 0.998371 -15.49 0.035308 59.015
           0.998371 -15.49 0.044335 74.089 0.035932 80.939
           0.035308 59.015 0.035932 80.939 0.998730 -26.91
6.82000000 0.044964 76.399 0.998361 -15.53 0.035412 58.923
           0.998361 -15.53 0.044461 74.043 0.036041 80.911
           0.035412 58.923 0.036041 80.911 0.998723 -26.99
6.84000000 0.045095 76.358 0.998352 -15.58 0.035515 58.832
           0.998352 -15.58 0.044588 73.996 0.036150 80.883
           0.035515 58.832 0.036150 80.883 0.998715 -27.07
6.86000000 0.045226 76.318 0.998342 -15.62 0.035619 58.740
           0.998342 -15.62 0.044714 73.949 0.036259 80.854
           0.035619 58.740 0.036259 80.854 0.998708 -27.15
6.88000000 0.045357 76.278 0.998332 -15.67 0.035723 58.649
           0.998332 -15.67 0.044841 73.902 0.036368 80.826
           0.035723 58.649 0.036368 80.826 0.998700 -27.23
6.90000000 0.045488 76.237 0.998323 -15.71 0.035826 58.557
           0.998323 -15.71 0.044968 73.856 0.036477 80.798
           0.035826 58.557 0.036477 80.798 0.998692 -27.31
6.92000000 0.045619 76.197 0.998313 -15.76 0.035930 58.466
           0.998313 -15.76 0.045094 73.809 0.036586 80.769
           0.035930 58.466 0.036586 80.769 0.998684 -27.39
6.94000000 0.045750 76.156 0.998303 -15.81 0.036033 58.374
           0.998303 -15.81 0.045221 73.762 0.036695 80.741
           0.036033 58.374 0.036695 80.741 0.998677 -27.47
6.96000000 0.045881 76.116 0.998293 -15.85 0.036137 58.283
           0.998293 -15.85 0.045347 73.715 0.036805 80.713
           0.036137 58.283 0.036805 80.713 0.998669 -27.55
6.98000000 0.046012 76.075 0.998284 -15.90 0.036240 58.191
           0.998284 -15.90 0.045473 73.668 0.036914 80.684
           0.036240 58.191 0.036914 80.684 0.998661 -27.63
7.00000000 0.046143 76.035 0.998274 -15.94 0.036344 58.100
           0.998274 -15.94 0.045600 73.622 0.037023 80.656
           0.036344 58.100 0.037023 80.656 0.998653 -27.71
7.02000000 0.046274 75.995 0.998264 -15.99 0.036447 58.008
           0.998264 -15.99 0.045726 73.575 0.037132 80.627
           0.036447 58.008 0.037132 80.627 0.998646 -27.79
7.04000000 0.046405 75.954 0.998254 -16.03 0.036551 57.916
           0.998254 -16.03 0.045852 73.528 0.037241 80.599
           0.036551 57.916 0.037241 80.599 0.998638 -27.87
7.06000000 0.046536 75.914 0.998244 -16.08 0.036654 57.825
           0.998244 -16.08 0.045979 73.481 0.037351 80.570
           0.036654 57.825 0.037351 80.570 0.998630 -27.95
7.08000000 0.046667 75.873 0.998234 -16.12 0.036758 57.733
           0.998234 -16.12 0.046105 73.435 0.037460 80.542
           0.036758 57.733 0.037460 80.542 0.998622 -28.03
7.10000000 0.046798 75.833 0.998224 -16.17 0.036861 57.642
           0.998224 -16.17 0.046231 73.388 0.037569 80.513
           0.036861 57.642 0.037569 80.513 0.998614 -28.11
!< P1 F=7.1 Eeff=(7.47591767 0.0) Z0=(59.3560544 0.0) R=0.0 C=0.00433329 
!< P2 F=7.1 Eeff=(8.19019114 0.0) Z0=(59.9229576 0.0) R=0.0 C=0.00429297 
!< P3 F=7.1 Eeff=(7.44544235 0.0) Z0=(49.7703974 0.0) R=0.0 C=0.00397212 
7.12000000 0.046928 75.792 0.998214 -16.22 0.036965 57.550
           0.998214 -16.22 0.046357 73.341 0.037678 80.485
           0.036965 57.550 0.037678 80.485 0.998606 -28.19
7.14000000 0.047059 75.752 0.998204 -16.26 0.037068 57.459
           0.998204 -16.26 0.046483 73.294 0.037788 80.456
           0.037068 57.459 0.037788 80.456 0.998598 -28.27
7.16000000 0.047190 75.711 0.998194 -16.31 0.037172 57.367
           0.998194 -16.31 0.046610 73.248 0.037897 80.428
           0.037172 57.367 0.037897 80.428 0.998590 -28.35
7.18000000 0.047321 75.671 0.998184 -16.35 0.037275 57.276
           0.998184 -16.35 0.046736 73.201 0.038007 80.399
           0.037275 57.276 0.038007 80.399 0.998582 -28.43
7.20000000 0.047452 75.631 0.998174 -16.40 0.037379 57.184
           0.998174 -16.40 0.046862 73.154 0.038116 80.370
           0.037379 57.184 0.038116 80.370 0.998574 -28.51
7.22000000 0.047583 75.590 0.998164 -16.44 0.037482 57.092
           0.998164 -16.44 0.046988 73.108 0.038226 80.342
           0.037482 57.092 0.038226 80.342 0.998566 -28.59
7.24000000 0.047713 75.550 0.998154 -16.49 0.037586 57.001
           0.998154 -16.49 0.047114 73.061 0.038335 80.313
           0.037586 57.001 0.038335 80.313 0.998558 -28.67