! Sonnet Data File
! From: em Version : 15.52
! From Project: CPW_gap_coupler_3port_1um_FL_TS_6um
! Data is De-embedded 
! Data File Written: 08/14/2018 17:24:40
!< HDATE 08/14/2018 17:19:51
!< MDATE 08/14/2018 17:19:51
!< PARAMS
!< gap = 2.0
!< cpwS = 5.0
!< cpwS1 = 5.0
!< feedW = 12.0
!< feedS1 = 5.0
!< cond_length = 344.0
!< inner_length = 326.0
!< hangerW = 12.0000175
!< open_gap = 22.0
!< coupler_length = 350.0
!< END PARAMS
# GHZ S MA R 50.00000
4.00000000 0.024261 81.786 0.999643 -9.023 0.011237 80.402
           0.999643 -9.023 0.024253 80.465 0.011253 83.296
           0.011237 80.402 0.011253 83.296 0.999874 -8.666
!< P1 F=4.0 Eeff=(7.47584511 0.0) Z0=(59.3564362 0.0) R=0.0 C=0.0043333 
!< P2 F=4.0 Eeff=(7.6276531 0.0) Z0=(57.165907 0.0) R=0.0 C=0.00427574 
!< P3 F=4.0 Eeff=(7.40625419 0.0) Z0=(61.4231271 0.0) R=0.0 C=0.00441634 
4.02000000 0.024381 81.745 0.999639 -9.068 0.011293 80.354
           0.999639 -9.068 0.024373 80.418 0.011310 83.263
           0.011293 80.354 0.011310 83.263 0.999872 -8.710
4.04000000 0.024502 81.704 0.999635 -9.113 0.011349 80.306
           0.999635 -9.113 0.024494 80.370 0.011366 83.229
           0.011349 80.306 0.011366 83.229 0.999871 -8.753
4.06000000 0.024622 81.663 0.999632 -9.158 0.011405 80.258
           0.999632 -9.158 0.024614 80.322 0.011423 83.195
           0.011405 80.258 0.011423 83.195 0.999870 -8.796
4.08000000 0.024742 81.622 0.999628 -9.204 0.011462 80.210
           0.999628 -9.204 0.024734 80.275 0.011480 83.162
           0.011462 80.210 0.011480 83.162 0.999868 -8.840
4.10000000 0.024863 81.581 0.999625 -9.249 0.011518 80.162
           0.999625 -9.249 0.024854 80.227 0.011536 83.128
           0.011518 80.162 0.011536 83.128 0.999867 -8.883
4.12000000 0.024983 81.540 0.999621 -9.294 0.011574 80.114
           0.999621 -9.294 0.024974 80.180 0.011593 83.094
           0.011574 80.114 0.011593 83.094 0.999866 -8.927
4.14000000 0.025103 81.499 0.999617 -9.339 0.011630 80.066
           0.999617 -9.339 0.025094 80.132 0.011649 83.061
           0.011630 80.066 0.011649 83.061 0.999865 -8.970
4.16000000 0.025223 81.458 0.999614 -9.384 0.011687 80.018
           0.999614 -9.384 0.025214 80.084 0.011706 83.027
           0.011687 80.018 0.011706 83.027 0.999863 -9.014
4.18000000 0.025344 81.417 0.999610 -9.429 0.011743 79.970
           0.999610 -9.429 0.025335 80.037 0.011762 82.993
           0.011743 79.970 0.011762 82.993 0.999862 -9.057
4.20000000 0.025464 81.376 0.999606 -9.474 0.011799 79.922
           0.999606 -9.474 0.025455 79.989 0.011819 82.960
           0.011799 79.922 0.011819 82.960 0.999861 -9.100
4.22000000 0.025584 81.335 0.999602 -9.519 0.011855 79.874
           0.999602 -9.519 0.025575 79.941 0.011875 82.926
           0.011855 79.874 0.011875 82.926 0.999859 -9.144
4.24000000 0.025704 81.294 0.999599 -9.564 0.011912 79.826
           0.999599 -9.564 0.025695 79.894 0.011932 82.892
           0.011912 79.826 0.011932 82.892 0.999858 -9.187
4.26000000 0.025824 81.253 0.999595 -9.609 0.011968 79.778
           0.999595 -9.609 0.025815 79.846 0.011988 82.859
           0.011968 79.778 0.011988 82.859 0.999857 -9.231
4.28000000 0.025944 81.212 0.999591 -9.655 0.012024 79.730
           0.999591 -9.655 0.025935 79.798 0.012045 82.825
           0.012024 79.730 0.012045 82.825 0.999855 -9.274
4.30000000 0.026065 81.171 0.999587 -9.700 0.012080 79.681
           0.999587 -9.700 0.026055 79.751 0.012101 82.792
           0.012080 79.681 0.012101 82.792 0.999854 -9.318
4.32000000 0.026185 81.130 0.999583 -9.745 0.012137 79.633
           0.999583 -9.745 0.026175 79.703 0.012158 82.758
           0.012137 79.633 0.012158 82.758 0.999852 -9.361
4.34000000 0.026305 81.089 0.999580 -9.790 0.012193 79.585
           0.999580 -9.790 0.026295 79.655 0.012215 82.724
           0.012193 79.585 0.012215 82.724 0.999851 -9.404
4.36000000 0.026425 81.048 0.999576 -9.835 0.012249 79.537
           0.999576 -9.835 0.026415 79.608 0.012271 82.691
           0.012249 79.537 0.012271 82.691 0.999850 -9.448
4.38000000 0.026545 81.007 0.999572 -9.880 0.012306 79.489
           0.999572 -9.880 0.026535 79.560 0.012328 82.657
           0.012306 79.489 0.012328 82.657 0.999848 -9.491
4.40000000 0.026665 80.966 0.999568 -9.925 0.012362 79.441
           0.999568 -9.925 0.026655 79.512 0.012384 82.623
           0.012362 79.441 0.012384 82.623 0.999847 -9.535
4.42000000 0.026785 80.925 0.999564 -9.970 0.012418 79.393
           0.999564 -9.970 0.026775 79.465 0.012441 82.590
           0.012418 79.393 0.012441 82.590 0.999846 -9.578
4.44000000 0.026905 80.884 0.999560 -10.02 0.012474 79.345
           0.999560 -10.02 0.026894 79.417 0.012497 82.556
           0.012474 79.345 0.012497 82.556 0.999844 -9.622
4.46000000 0.027025 80.843 0.999556 -10.06 0.012531 79.297
           0.999556 -10.06 0.027014 79.369 0.012554 82.522
           0.012531 79.297 0.012554 82.522 0.999843 -9.665
4.48000000 0.027145 80.802 0.999552 -10.11 0.012587 79.249
           0.999552 -10.11 0.027134 79.322 0.012611 82.489
           0.012587 79.249 0.012611 82.489 0.999841 -9.708
4.50000000 0.027265 80.761 0.999548 -10.15 0.012643 79.201
           0.999548 -10.15 0.027254 79.274 0.012667 82.455
           0.012643 79.201 0.012667 82.455 0.999840 -9.752
4.52000000 0.027385 80.720 0.999544 -10.20 0.012699 79.153
           0.999544 -10.20 0.027374 79.226 0.012724 82.421
           0.012699 79.153 0.012724 82.421 0.999838 -9.795
4.54000000 0.027505 80.679 0.999540 -10.24 0.012756 79.105
           0.999540 -10.24 0.027494 79.179 0.012780 82.388
           0.012756 79.105 0.012780 82.388 0.999837 -9.839
4.56000000 0.027625 80.638 0.999536 -10.29 0.012812 79.057
           0.999536 -10.29 0.027613 79.131 0.012837 82.354
           0.012812 79.057 0.012837 82.354 0.999836 -9.882
4.58000000 0.027745 80.597 0.999532 -10.33 0.012868 79.009
           0.999532 -10.33 0.027733 79.083 0.012894 82.320
           0.012868 79.009 0.012894 82.320 0.999834 -9.926
4.60000000 0.027865 80.556 0.999528 -10.38 0.012925 78.961
           0.999528 -10.38 0.027853 79.036 0.012950 82.287
           0.012925 78.961 0.012950 82.287 0.999833 -9.969
4.62000000 0.027985 80.515 0.999524 -10.42 0.012981 78.913
           0.999524 -10.42 0.027973 78.988 0.013007 82.253
           0.012981 78.913 0.013007 82.253 0.999831 -10.01
4.64000000 0.028104 80.474 0.999520 -10.47 0.013037 78.865
           0.999520 -10.47 0.028092 78.940 0.013064 82.219
           0.013037 78.865 0.013064 82.219 0.999830 -10.06
4.66000000 0.028224 80.433 0.999516 -10.51 0.013093 78.817
           0.999516 -10.51 0.028212 78.893 0.013120 82.186
           0.013093 78.817 0.013120 82.186 0.999828 -10.10
4.68000000 0.028344 80.392 0.999512 -10.56 0.013150 78.769
           0.999512 -10.56 0.028332 78.845 0.013177 82.152
           0.013150 78.769 0.013177 82.152 0.999827 -10.14
4.70000000 0.028464 80.351 0.999508 -10.60 0.013206 78.720
           0.999508 -10.60 0.028451 78.797 0.013233 82.118
           0.013206 78.720 0.013233 82.118 0.999825 -10.19
4.72000000 0.028584 80.310 0.999503 -10.65 0.013262 78.672
           0.999503 -10.65 0.028571 78.750 0.013290 82.085
           0.013262 78.672 0.013290 82.085 0.999824 -10.23
4.74000000 0.028704 80.269 0.999499 -10.69 0.013319 78.624
           0.999499 -10.69 0.028690 78.702 0.013347 82.051
           0.013319 78.624 0.013347 82.051 0.999822 -10.27
4.76000000 0.028823 80.228 0.999495 -10.74 0.013375 78.576
           0.999495 -10.74 0.028810 78.654 0.013403 82.017
           0.013375 78.576 0.013403 82.017 0.999821 -10.32
4.78000000 0.028943 80.187 0.999491 -10.78 0.013431 78.528
           0.999491 -10.78 0.028930 78.607 0.013460 81.983
           0.013431 78.528 0.013460 81.983 0.999819 -10.36
4.80000000 0.029063 80.146 0.999487 -10.83 0.013488 78.480
           0.999487 -10.83 0.029049 78.559 0.013517 81.950
           0.013488 78.480 0.013517 81.950 0.999818 -10.40
4.82000000 0.029182 80.105 0.999482 -10.87 0.013544 78.432
           0.999482 -10.87 0.029169 78.511 0.013573 81.916
           0.013544 78.432 0.013573 81.916 0.999816 -10.45
4.84000000 0.029302 80.064 0.999478 -10.92 0.013600 78.384
           0.999478 -10.92 0.029288 78.464 0.013630 81.882
           0.013600 78.384 0.013630 81.882 0.999815 -10.49
4.86000000 0.029422 80.023 0.999474 -10.96 0.013656 78.336
           0.999474 -10.96 0.029408 78.416 0.013687 81.849
           0.013656 78.336 0.013687 81.849 0.999813 -10.53
!< P1 F=4.86 Eeff=(7.47586119 0.0) Z0=(59.3563517 0.0) R=0.0 C=0.0043333 
!< P2 F=4.86 Eeff=(7.62766801 0.0) Z0=(57.1658287 0.0) R=0.0 C=0.00427574 
!< P3 F=4.86 Eeff=(7.40627141 0.0) Z0=(61.4230448 0.0) R=0.0 C=0.00441634 
4.88000000 0.029541 79.982 0.999469 -11.01 0.013713 78.288
           0.999469 -11.01 0.029527 78.369 0.013743 81.815
           0.013713 78.288 0.013743 81.815 0.999812 -10.58
4.90000000 0.029661 79.941 0.999465 -11.05 0.013769 78.240
           0.999465 -11.05 0.029647 78.321 0.013800 81.781
           0.013769 78.240 0.013800 81.781 0.999810 -10.62
4.92000000 0.029781 79.900 0.999461 -11.10 0.013825 78.192
           0.999461 -11.10 0.029766 78.273 0.013857 81.748
           0.013825 78.192 0.013857 81.748 0.999808 -10.66
4.94000000 0.029900 79.859 0.999456 -11.14 0.013882 78.144
           0.999456 -11.14 0.029886 78.226 0.013913 81.714
           0.013882 78.144 0.013913 81.714 0.999807 -10.71
4.96000000 0.030020 79.818 0.999452 -11.19 0.013938 78.096
           0.999452 -11.19 0.030005 78.178 0.013970 81.680
           0.013938 78.096 0.013970 81.680 0.999805 -10.75
4.98000000 0.030139 79.777 0.999448 -11.23 0.013994 78.048
           0.999448 -11.23 0.030124 78.130 0.014027 81.647
           0.013994 78.048 0.014027 81.647 0.999804 -10.80
5.00000000 0.030259 79.736 0.999443 -11.28 0.014051 77.999
           0.999443 -11.28 0.030244 78.083 0.014084 81.613
           0.014051 77.999 0.014084 81.613 0.999802 -10.84
5.02000000 0.030379 79.695 0.999439 -11.32 0.014107 77.951
           0.999439 -11.32 0.030363 78.035 0.014140 81.579
           0.014107 77.951 0.014140 81.579 0.999800 -10.88
5.04000000 0.030498 79.654 0.999434 -11.37 0.014163 77.903
           0.999434 -11.37 0.030482 77.987 0.014197 81.545
           0.014163 77.903 0.014197 81.545 0.999799 -10.93
5.06000000 0.030618 79.613 0.999430 -11.41 0.014220 77.855
           0.999430 -11.41 0.030602 77.940 0.014254 81.512
           0.014220 77.855 0.014254 81.512 0.999797 -10.97
5.08000000 0.030737 79.572 0.999426 -11.46 0.014276 77.807
           0.999426 -11.46 0.030721 77.892 0.014310 81.478
           0.014276 77.807 0.014310 81.478 0.999796 -11.01
5.10000000 0.030857 79.531 0.999421 -11.50 0.014332 77.759
           0.999421 -11.50 0.030840 77.844 0.014367 81.444
           0.014332 77.759 0.014367 81.444 0.999794 -11.06
5.12000000 0.030976 79.490 0.999417 -11.55 0.014389 77.711
           0.999417 -11.55 0.030959 77.797 0.014424 81.411
           0.014389 77.711 0.014424 81.411 0.999792 -11.10
5.14000000 0.031095 79.449 0.999412 -11.59 0.014445 77.663
           0.999412 -11.59 0.031079 77.749 0.014481 81.377
           0.014445 77.663 0.014481 81.377 0.999791 -11.14
5.16000000 0.031215 79.408 0.999408 -11.64 0.014501 77.615
           0.999408 -11.64 0.031198 77.701 0.014537 81.343
           0.014501 77.615 0.014537 81.343 0.999789 -11.19
5.18000000 0.031334 79.367 0.999403 -11.68 0.014557 77.567
           0.999403 -11.68 0.031317 77.654 0.014594 81.309
           0.014557 77.567 0.014594 81.309 0.999788 -11.23
5.20000000 0.031454 79.326 0.999398 -11.73 0.014614 77.519
           0.999398 -11.73 0.031436 77.606 0.014651 81.276
           0.014614 77.519 0.014651 81.276 0.999786 -11.27
5.22000000 0.031573 79.285 0.999394 -11.77 0.014670 77.471
           0.999394 -11.77 0.031555 77.558 0.014708 81.242
           0.014670 77.471 0.014708 81.242 0.999784 -11.32
5.24000000 0.031692 79.244 0.999389 -11.82 0.014726 77.423
           0.999389 -11.82 0.031675 77.511 0.014764 81.208
           0.014726 77.423 0.014764 81.208 0.999783 -11.36
5.26000000 0.031812 79.203 0.999385 -11.86 0.014783 77.374
           0.999385 -11.86 0.031794 77.463 0.014821 81.174
           0.014783 77.374 0.014821 81.174 0.999781 -11.40
5.28000000 0.031931 79.162 0.999380 -11.91 0.014839 77.326
           0.999380 -11.91 0.031913 77.416 0.014878 81.141
           0.014839 77.326 0.014878 81.141 0.999779 -11.45
5.30000000 0.032050 79.121 0.999375 -11.95 0.014895 77.278
           0.999375 -11.95 0.032032 77.368 0.014935 81.107
           0.014895 77.278 0.014935 81.107 0.999777 -11.49
5.32000000 0.032169 79.080 0.999371 -12.00 0.014952 77.230
           0.999371 -12.00 0.032151 77.320 0.014991 81.073
           0.014952 77.230 0.014991 81.073 0.999776 -11.53
5.34000000 0.032289 79.039 0.999366 -12.04 0.015008 77.182
           0.999366 -12.04 0.032270 77.273 0.015048 81.039
           0.015008 77.182 0.015048 81.039 0.999774 -11.58
5.36000000 0.032408 78.998 0.999361 -12.09 0.015064 77.134
           0.999361 -12.09 0.032389 77.225 0.015105 81.006
           0.015064 77.134 0.015105 81.006 0.999772 -11.62
5.38000000 0.032527 78.957 0.999356 -12.13 0.015121 77.086
           0.999356 -12.13 0.032508 77.177 0.015162 80.972
           0.015121 77.086 0.015162 80.972 0.999771 -11.67
5.40000000 0.032646 78.916 0.999352 -12.18 0.015177 77.038
           0.999352 -12.18 0.032627 77.130 0.015219 80.938
           0.015177 77.038 0.015219 80.938 0.999769 -11.71
5.42000000 0.032765 78.875 0.999347 -12.22 0.015233 76.990
           0.999347 -12.22 0.032746 77.082 0.015275 80.904
           0.015233 76.990 0.015275 80.904 0.999767 -11.75
5.44000000 0.032885 78.834 0.999342 -12.27 0.015290 76.942
           0.999342 -12.27 0.032865 77.034 0.015332 80.871
           0.015290 76.942 0.015332 80.871 0.999766 -11.80
5.46000000 0.033004 78.793 0.999337 -12.31 0.015346 76.894
           0.999337 -12.31 0.032984 76.987 0.015389 80.837
           0.015346 76.894 0.015389 80.837 0.999764 -11.84
5.48000000 0.033123 78.752 0.999333 -12.36 0.015402 76.846
           0.999333 -12.36 0.033103 76.939 0.015446 80.803
           0.015402 76.846 0.015446 80.803 0.999762 -11.88
5.50000000 0.033242 78.711 0.999328 -12.40 0.015459 76.797
           0.999328 -12.40 0.033221 76.891 0.015503 80.769
           0.015459 76.797 0.015503 80.769 0.999760 -11.93
5.52000000 0.033361 78.670 0.999323 -12.45 0.015515 76.749
           0.999323 -12.45 0.033340 76.844 0.015559 80.736
           0.015515 76.749 0.015559 80.736 0.999759 -11.97
5.54000000 0.033480 78.629 0.999318 -12.50 0.015572 76.701
           0.999318 -12.50 0.033459 76.796 0.015616 80.702
           0.015572 76.701 0.015616 80.702 0.999757 -12.01
5.56000000 0.033599 78.588 0.999313 -12.54 0.015628 76.653
           0.999313 -12.54 0.033578 76.748 0.015673 80.668
           0.015628 76.653 0.015673 80.668 0.999755 -12.06
5.58000000 0.033718 78.547 0.999308 -12.59 0.015684 76.605
           0.999308 -12.59 0.033697 76.701 0.015730 80.634
           0.015684 76.605 0.015730 80.634 0.999753 -12.10
5.60000000 0.033837 78.506 0.999303 -12.63 0.015741 76.557
           0.999303 -12.63 0.033815 76.653 0.015787 80.601
           0.015741 76.557 0.015787 80.601 0.999751 -12.14
5.62000000 0.033956 78.465 0.999299 -12.68 0.015797 76.509
           0.999299 -12.68 0.033934 76.605 0.015844 80.567
           0.015797 76.509 0.015844 80.567 0.999750 -12.19
5.64000000 0.034075 78.424 0.999294 -12.72 0.015853 76.461
           0.999294 -12.72 0.034053 76.558 0.015900 80.533
           0.015853 76.461 0.015900 80.533 0.999748 -12.23
5.66000000 0.034194 78.383 0.999289 -12.77 0.015910 76.413
           0.999289 -12.77 0.034172 76.510 0.015957 80.499
           0.015910 76.413 0.015957 80.499 0.999746 -12.27
5.68000000 0.034313 78.342 0.999284 -12.81 0.015966 76.365
           0.999284 -12.81 0.034290 76.463 0.016014 80.465
           0.015966 76.365 0.016014 80.465 0.999744 -12.32
5.70000000 0.034432 78.301 0.999279 -12.86 0.016022 76.317
           0.999279 -12.86 0.034409 76.415 0.016071 80.432
           0.016022 76.317 0.016071 80.432 0.999742 -12.36
5.72000000 0.034551 78.260 0.999274 -12.90 0.016079 76.268
           0.999274 -12.90 0.034528 76.367 0.016128 80.398
           0.016079 76.268 0.016128 80.398 0.999741 -12.41
5.74000000 0.034669 78.219 0.999269 -12.95 0.016135 76.220
           0.999269 -12.95 0.034646 76.320 0.016185 80.364
           0.016135 76.220 0.016185 80.364 0.999739 -12.45
5.76000000 0.034788 78.178 0.999264 -12.99 0.016191 76.172
           0.999264 -12.99 0.034765 76.272 0.016242 80.330
           0.016191 76.172 0.016242 80.330 0.999737 -12.49
5.78000000 0.034907 78.137 0.999259 -13.04 0.016248 76.124
           0.999259 -13.04 0.034883 76.224 0.016299 80.296
           0.016248 76.124 0.016299 80.296 0.999735 -12.54
5.80000000 0.035026 78.096 0.999253 -13.08 0.016304 76.076
           0.999253 -13.08 0.035002 76.177 0.016355 80.263
           0.016304 76.076 0.016355 80.263 0.999733 -12.58
5.82000000 0.035145 78.055 0.999248 -13.13 0.016361 76.028
           0.999248 -13.13 0.035120 76.129 0.016412 80.229
           0.016361 76.028 0.016412 80.229 0.999731 -12.62
5.84000000 0.035263 78.015 0.999243 -13.17 0.016417 75.980
           0.999243 -13.17 0.035239 76.081 0.016469 80.195
           0.016417 75.980 0.016469 80.195 0.999730 -12.67
5.86000000 0.035382 77.974 0.999238 -13.22 0.016473 75.932
           0.999238 -13.22 0.035357 76.034 0.016526 80.161
           0.016473 75.932 0.016526 80.161 0.999728 -12.71
5.88000000 0.035501 77.933 0.999233 -13.26 0.016530 75.884
           0.999233 -13.26 0.035476 75.986 0.016583 80.127
           0.016530 75.884 0.016583 80.127 0.999726 -12.75
5.90000000 0.035619 77.892 0.999228 -13.31 0.016586 75.836
           0.999228 -13.31 0.035594 75.938 0.016640 80.094
           0.016586 75.836 0.016640 80.094 0.999724 -12.80
5.92000000 0.035738 77.851 0.999223 -13.35 0.016642 75.787
           0.999223 -13.35 0.035713 75.891 0.016697 80.060
           0.016642 75.787 0.016697 80.060 0.999722 -12.84
5.94000000 0.035857 77.810 0.999217 -13.40 0.016699 75.739
           0.999217 -13.40 0.035831 75.843 0.016754 80.026
           0.016699 75.739 0.016754 80.026 0.999720 -12.88
5.96000000 0.035975 77.769 0.999212 -13.44 0.016755 75.691
           0.999212 -13.44 0.035949 75.795 0.016811 79.992
           0.016755 75.691 0.016811 79.992 0.999718 -12.93
5.98000000 0.036094 77.728 0.999207 -13.49 0.016812 75.643
           0.999207 -13.49 0.036068 75.748 0.016868 79.958
           0.016812 75.643 0.016868 79.958 0.999716 -12.97
6.00000000 0.036213 77.687 0.999202 -13.53 0.016868 75.595
           0.999202 -13.53 0.036186 75.700 0.016925 79.925
           0.016868 75.595 0.016925 79.925 0.999714 -13.01
!< P1 F=6.0 Eeff=(7.47588731 0.0) Z0=(59.3562144 0.0) R=0.0 C=0.00433329 
!< P2 F=6.0 Eeff=(7.62769223 0.0) Z0=(57.1657013 0.0) R=0.0 C=0.00427574 
!< P3 F=6.0 Eeff=(7.40629847 0.0) Z0=(61.4229072 0.0) R=0.0 C=0.00441634 
6.02000000 0.036331 77.646 0.999196 -13.58 0.016924 75.547
           0.999196 -13.58 0.036304 75.653 0.016982 79.891
           0.016924 75.547 0.016982 79.891 0.999713 -13.06
6.04000000 0.036450 77.605 0.999191 -13.62 0.016981 75.499
           0.999191 -13.62 0.036423 75.605 0.017039 79.857
           0.016981 75.499 0.017039 79.857 0.999711 -13.10
6.06000000 0.036568 77.564 0.999186 -13.67 0.017037 75.451
           0.999186 -13.67 0.036541 75.557 0.017096 79.823
           0.017037 75.451 0.017096 79.823 0.999709 -13.15
6.08000000 0.036687 77.523 0.999181 -13.71 0.017093 75.403
           0.999181 -13.71 0.036659 75.510 0.017153 79.789
           0.017093 75.403 0.017153 79.789 0.999707 -13.19
6.10000000 0.036805 77.482 0.999175 -13.76 0.017150 75.355
           0.999175 -13.76 0.036777 75.462 0.017210 79.755
           0.017150 75.355 0.017210 79.755 0.999705 -13.23
6.12000000 0.036924 77.441 0.999170 -13.80 0.017206 75.306
           0.999170 -13.80 0.036895 75.414 0.017267 79.722
           0.017206 75.306 0.017267 79.722 0.999703 -13.28
6.14000000 0.037042 77.400 0.999165 -13.85 0.017263 75.258
           0.999165 -13.85 0.037014 75.367 0.017323 79.688
           0.017263 75.258 0.017323 79.688 0.999701 -13.32
6.16000000 0.037160 77.359 0.999159 -13.89 0.017319 75.210
           0.999159 -13.89 0.037132 75.319 0.017380 79.654
           0.017319 75.210 0.017380 79.654 0.999699 -13.36
6.18000000 0.037279 77.318 0.999154 -13.94 0.017375 75.162
           0.999154 -13.94 0.037250 75.271 0.017437 79.620
           0.017375 75.162 0.017437 79.620 0.999697 -13.41
6.20000000 0.037397 77.277 0.999148 -13.98 0.017432 75.114
           0.999148 -13.98 0.037368 75.224 0.017494 79.586
           0.017432 75.114 0.017494 79.586 0.999695 -13.45
6.22000000 0.037515 77.236 0.999143 -14.03 0.017488 75.066
           0.999143 -14.03 0.037486 75.176 0.017551 79.552
           0.017488 75.066 0.017551 79.552 0.999693 -13.49
6.24000000 0.037634 77.196 0.999138 -14.07 0.017545 75.018
           0.999138 -14.07 0.037604 75.129 0.017608 79.518
           0.017545 75.018 0.017608 79.518 0.999691 -13.54
6.26000000 0.037752 77.155 0.999132 -14.12 0.017601 74.970
           0.999132 -14.12 0.037722 75.081 0.017666 79.485
           0.017601 74.970 0.017666 79.485 0.999689 -13.58
6.28000000 0.037870 77.114 0.999127 -14.16 0.017657 74.921
           0.999127 -14.16 0.037840 75.033 0.017723 79.451
           0.017657 74.921 0.017723 79.451 0.999687 -13.63
6.30000000 0.037989 77.073 0.999121 -14.21 0.017714 74.873
           0.999121 -14.21 0.037958 74.986 0.017780 79.417
           0.017714 74.873 0.017780 79.417 0.999685 -13.67
6.32000000 0.038107 77.032 0.999116 -14.25 0.017770 74.825
           0.999116 -14.25 0.038076 74.938 0.017837 79.383
           0.017770 74.825 0.017837 79.383 0.999683 -13.71
6.34000000 0.038225 76.991 0.999110 -14.30 0.017827 74.777
           0.999110 -14.30 0.038194 74.890 0.017894 79.349
           0.017827 74.777 0.017894 79.349 0.999681 -13.76
6.36000000 0.038343 76.950 0.999105 -14.34 0.017883 74.729
           0.999105 -14.34 0.038312 74.843 0.017951 79.315
           0.017883 74.729 0.017951 79.315 0.999679 -13.80
6.38000000 0.038461 76.909 0.999099 -14.39 0.017939 74.681
           0.999099 -14.39 0.038429 74.795 0.018008 79.281
           0.017939 74.681 0.018008 79.281 0.999677 -13.84
6.40000000 0.038580 76.868 0.999094 -14.43 0.017996 74.633
           0.999094 -14.43 0.038547 74.747 0.018065 79.248
           0.017996 74.633 0.018065 79.248 0.999675 -13.89
6.42000000 0.038698 76.827 0.999088 -14.48 0.018052 74.585
           0.999088 -14.48 0.038665 74.700 0.018122 79.214
           0.018052 74.585 0.018122 79.214 0.999673 -13.93
6.44000000 0.038816 76.786 0.999082 -14.52 0.018109 74.536
           0.999082 -14.52 0.038783 74.652 0.018179 79.180
           0.018109 74.536 0.018179 79.180 0.999671 -13.97
6.46000000 0.038934 76.745 0.999077 -14.57 0.018165 74.488
           0.999077 -14.57 0.038901 74.605 0.018236 79.146
           0.018165 74.488 0.018236 79.146 0.999669 -14.02
6.48000000 0.039052 76.705 0.999071 -14.61 0.018222 74.440
           0.999071 -14.61 0.039018 74.557 0.018293 79.112
           0.018222 74.440 0.018293 79.112 0.999667 -14.06
6.50000000 0.039170 76.664 0.999065 -14.66 0.018278 74.392
           0.999065 -14.66 0.039136 74.509 0.018350 79.078
           0.018278 74.392 0.018350 79.078 0.999665 -14.10
6.52000000 0.039288 76.623 0.999060 -14.70 0.018334 74.344
           0.999060 -14.70 0.039254 74.462 0.018407 79.044
           0.018334 74.344 0.018407 79.044 0.999663 -14.15
6.54000000 0.039406 76.582 0.999054 -14.75 0.018391 74.296
           0.999054 -14.75 0.039371 74.414 0.018464 79.010
           0.018391 74.296 0.018464 79.010 0.999660 -14.19
6.56000000 0.039524 76.541 0.999048 -14.79 0.018447 74.248
           0.999048 -14.79 0.039489 74.366 0.018521 78.976
           0.018447 74.248 0.018521 78.976 0.999658 -14.24
6.58000000 0.039642 76.500 0.999043 -14.84 0.018504 74.200
           0.999043 -14.84 0.039607 74.319 0.018579 78.943
           0.018504 74.200 0.018579 78.943 0.999656 -14.28
6.60000000 0.039760 76.459 0.999037 -14.88 0.018560 74.151
           0.999037 -14.88 0.039724 74.271 0.018636 78.909
           0.018560 74.151 0.018636 78.909 0.999654 -14.32
6.62000000 0.039878 76.418 0.999031 -14.93 0.018617 74.103
           0.999031 -14.93 0.039842 74.224 0.018693 78.875
           0.018617 74.103 0.018693 78.875 0.999652 -14.37
6.64000000 0.039995 76.377 0.999025 -14.97 0.018673 74.055
           0.999025 -14.97 0.039959 74.176 0.018750 78.841
           0.018673 74.055 0.018750 78.841 0.999650 -14.41
6.66000000 0.040113 76.336 0.999020 -15.02 0.018729 74.007
           0.999020 -15.02 0.040077 74.128 0.018807 78.807
           0.018729 74.007 0.018807 78.807 0.999648 -14.45
6.68000000 0.040231 76.295 0.999014 -15.06 0.018786 73.959
           0.999014 -15.06 0.040194 74.081 0.018864 78.773
           0.018786 73.959 0.018864 78.773 0.999646 -14.50
6.70000000 0.040349 76.255 0.999008 -15.11 0.018842 73.911
           0.999008 -15.11 0.040312 74.033 0.018921 78.739
           0.018842 73.911 0.018921 78.739 0.999644 -14.54
6.72000000 0.040467 76.214 0.999002 -15.15 0.018899 73.863
           0.999002 -15.15 0.040429 73.985 0.018978 78.705
           0.018899 73.863 0.018978 78.705 0.999641 -14.58
6.74000000 0.040584 76.173 0.998996 -15.20 0.018955 73.814
           0.998996 -15.20 0.040546 73.938 0.019036 78.671
           0.018955 73.814 0.019036 78.671 0.999639 -14.63
6.76000000 0.040702 76.132 0.998991 -15.24 0.019012 73.766
           0.998991 -15.24 0.040664 73.890 0.019093 78.637
           0.019012 73.766 0.019093 78.637 0.999637 -14.67
6.78000000 0.040820 76.091 0.998985 -15.29 0.019068 73.718
           0.998985 -15.29 0.040781 73.842 0.019150 78.603
           0.019068 73.718 0.019150 78.603 0.999635 -14.72
6.80000000 0.040937 76.050 0.998979 -15.33 0.019125 73.670
           0.998979 -15.33 0.040899 73.795 0.019207 78.570
           0.019125 73.670 0.019207 78.570 0.999633 -14.76
6.82000000 0.041055 76.009 0.998973 -15.38 0.019181 73.622
           0.998973 -15.38 0.041016 73.747 0.019264 78.536
           0.019181 73.622 0.019264 78.536 0.999631 -14.80
6.84000000 0.041173 75.968 0.998967 -15.42 0.019237 73.574
           0.998967 -15.42 0.041133 73.700 0.019321 78.502
           0.019237 73.574 0.019321 78.502 0.999628 -14.85
6.86000000 0.041290 75.927 0.998961 -15.47 0.019294 73.526
           0.998961 -15.47 0.041250 73.652 0.019379 78.468
           0.019294 73.526 0.019379 78.468 0.999626 -14.89
6.88000000 0.041408 75.886 0.998955 -15.51 0.019350 73.477
           0.998955 -15.51 0.041368 73.604 0.019436 78.434
           0.019350 73.477 0.019436 78.434 0.999624 -14.93
6.90000000 0.041525 75.846 0.998949 -15.56 0.019407 73.429
           0.998949 -15.56 0.041485 73.557 0.019493 78.400
           0.019407 73.429 0.019493 78.400 0.999622 -14.98
6.92000000 0.041643 75.805 0.998943 -15.60 0.019463 73.381
           0.998943 -15.60 0.041602 73.509 0.019550 78.366
           0.019463 73.381 0.019550 78.366 0.999620 -15.02
6.94000000 0.041761 75.764 0.998937 -15.65 0.019520 73.333
           0.998937 -15.65 0.041719 73.461 0.019607 78.332
           0.019520 73.333 0.019607 78.332 0.999617 -15.06
6.96000000 0.041878 75.723 0.998931 -15.69 0.019576 73.285
           0.998931 -15.69 0.041836 73.414 0.019665 78.298
           0.019576 73.285 0.019665 78.298 0.999615 -15.11
6.98000000 0.041995 75.682 0.998925 -15.74 0.019633 73.237
           0.998925 -15.74 0.041953 73.366 0.019722 78.264
           0.019633 73.237 0.019722 78.264 0.999613 -15.15
7.00000000 0.042113 75.641 0.998919 -15.78 0.019689 73.189
           0.998919 -15.78 0.042070 73.319 0.019779 78.230
           0.019689 73.189 0.019779 78.230 0.999611 -15.20
7.02000000 0.042230 75.600 0.998913 -15.83 0.019746 73.140
           0.998913 -15.83 0.042187 73.271 0.019836 78.196
           0.019746 73.140 0.019836 78.196 0.999608 -15.24
7.04000000 0.042348 75.559 0.998907 -15.87 0.019802 73.092
           0.998907 -15.87 0.042304 73.223 0.019894 78.162
           0.019802 73.092 0.019894 78.162 0.999606 -15.28
7.06000000 0.042465 75.518 0.998901 -15.92 0.019859 73.044
           0.998901 -15.92 0.042421 73.176 0.019951 78.128
           0.019859 73.044 0.019951 78.128 0.999604 -15.33
7.08000000 0.042582 75.477 0.998895 -15.96 0.019915 72.996
           0.998895 -15.96 0.042538 73.128 0.020008 78.094
           0.019915 72.996 0.020008 78.094 0.999602 -15.37
7.10000000 0.042700 75.437 0.998889 -16.01 0.019971 72.948
           0.998889 -16.01 0.042655 73.080 0.020065 78.060
           0.019971 72.948 0.020065 78.060 0.999599 -15.41
7.12000000 0.042817 75.396 0.998882 -16.05 0.020028 72.900
           0.998882 -16.05 0.042772 73.033 0.020123 78.026
           0.020028 72.900 0.020123 78.026 0.999597 -15.46
7.14000000 0.042934 75.355 0.998876 -16.10 0.020084 72.851
           0.998876 -16.10 0.042889 72.985 0.020180 77.992
           0.020084 72.851 0.020180 77.992 0.999595 -15.50
7.16000000 0.043051 75.314 0.998870 -16.15 0.020141 72.803
           0.998870 -16.15 0.043006 72.938 0.020237 77.958
           0.020141 72.803 0.020237 77.958 0.999592 -15.55
7.18000000 0.043169 75.273 0.998864 -16.19 0.020197 72.755
           0.998864 -16.19 0.043123 72.890 0.020294 77.924
           0.020197 72.755 0.020294 77.924 0.999590 -15.59
7.20000000 0.043286 75.232 0.998858 -16.24 0.020254 72.707
           0.998858 -16.24 0.043240 72.842 0.020352 77.891
           0.020254 72.707 0.020352 77.891 0.999588 -15.63
7.22000000 0.043403 75.191 0.998851 -16.28 0.020310 72.659
           0.998851 -16.28 0.043356 72.795 0.020409 77.857
           0.020310 72.659 0.020409 77.857 0.999586 -15.68
7.24000000 0.043520 75.150 0.998845 -16.33 0.020367 72.610
           0.998845 -16.33 0.043473 72.747 0.020466 77.823
           0.020367 72.610 0.020466 77.823 0.999583 -15.72