! Sonnet Data File
! From: em Version : 15.52
! From Project: CPW_gap_coupler_3port_1um_FL_TS_6um
! Data is De-embedded 
! Data File Written: 08/14/2018 17:24:40
!< HDATE 08/14/2018 17:19:51
!< MDATE 08/14/2018 17:19:51
!< PARAMS
!< gap = 2.0
!< cpwS = 5.0
!< cpwS1 = 5.0
!< feedW = 12.0
!< feedS1 = 5.0
!< cond_length = 244.0
!< inner_length = 226.0
!< hangerW = 12.0000175
!< open_gap = 22.0
!< coupler_length = 250.0
!< END PARAMS
# GHZ S MA R 50.00000
4.00000000 0.023325 81.700 0.999697 -8.981 0.007863 83.225
           0.999697 -8.981 0.023325 80.490 0.007863 82.695
           0.007863 83.225 0.007863 82.695 0.999938 -6.435
!< P1 F=4.0 Eeff=(7.47584511 0.0) Z0=(59.3564362 0.0) R=0.0 C=0.0043333 
!< P2 F=4.0 Eeff=(7.6276531 0.0) Z0=(57.165907 0.0) R=0.0 C=0.00427574 
!< P3 F=4.0 Eeff=(7.40607175 0.0) Z0=(61.4215518 0.0) R=0.0 C=0.00441628 
4.02000000 0.023440 81.658 0.999694 -9.026 0.007902 83.191
           0.999694 -9.026 0.023440 80.443 0.007902 82.659
           0.007902 83.191 0.007902 82.659 0.999938 -6.468
4.04000000 0.023556 81.617 0.999691 -9.071 0.007941 83.157
           0.999691 -9.071 0.023556 80.395 0.007942 82.622
           0.007941 83.157 0.007942 82.622 0.999937 -6.500
4.06000000 0.023672 81.575 0.999688 -9.116 0.007981 83.123
           0.999688 -9.116 0.023672 80.348 0.007981 82.586
           0.007981 83.123 0.007981 82.586 0.999936 -6.532
4.08000000 0.023787 81.534 0.999685 -9.161 0.008020 83.089
           0.999685 -9.161 0.023787 80.300 0.008020 82.549
           0.008020 83.089 0.008020 82.549 0.999936 -6.564
4.10000000 0.023903 81.492 0.999682 -9.205 0.008060 83.055
           0.999682 -9.205 0.023903 80.253 0.008060 82.513
           0.008060 83.055 0.008060 82.513 0.999935 -6.597
4.12000000 0.024018 81.451 0.999679 -9.250 0.008099 83.021
           0.999679 -9.250 0.024018 80.205 0.008099 82.476
           0.008099 83.021 0.008099 82.476 0.999934 -6.629
4.14000000 0.024134 81.409 0.999676 -9.295 0.008138 82.987
           0.999676 -9.295 0.024134 80.157 0.008139 82.440
           0.008138 82.987 0.008139 82.440 0.999934 -6.661
4.16000000 0.024249 81.368 0.999672 -9.340 0.008178 82.953
           0.999672 -9.340 0.024249 80.110 0.008178 82.403
           0.008178 82.953 0.008178 82.403 0.999933 -6.693
4.18000000 0.024365 81.326 0.999669 -9.385 0.008217 82.919
           0.999669 -9.385 0.024365 80.062 0.008218 82.366
           0.008217 82.919 0.008218 82.366 0.999932 -6.725
4.20000000 0.024480 81.285 0.999666 -9.430 0.008257 82.886
           0.999666 -9.430 0.024480 80.015 0.008257 82.330
           0.008257 82.886 0.008257 82.330 0.999932 -6.758
4.22000000 0.024596 81.244 0.999663 -9.475 0.008296 82.852
           0.999663 -9.475 0.024596 79.967 0.008296 82.293
           0.008296 82.852 0.008296 82.293 0.999931 -6.790
4.24000000 0.024711 81.202 0.999660 -9.520 0.008335 82.818
           0.999660 -9.520 0.024711 79.920 0.008336 82.257
           0.008335 82.818 0.008336 82.257 0.999931 -6.822
4.26000000 0.024827 81.161 0.999657 -9.565 0.008375 82.784
           0.999657 -9.565 0.024827 79.872 0.008375 82.220
           0.008375 82.784 0.008375 82.220 0.999930 -6.854
4.28000000 0.024942 81.119 0.999653 -9.609 0.008414 82.750
           0.999653 -9.609 0.024942 79.825 0.008415 82.184
           0.008414 82.750 0.008415 82.184 0.999929 -6.887
4.30000000 0.025058 81.078 0.999650 -9.654 0.008454 82.716
           0.999650 -9.654 0.025058 79.777 0.008454 82.147
           0.008454 82.716 0.008454 82.147 0.999929 -6.919
4.32000000 0.025173 81.036 0.999647 -9.699 0.008493 82.682
           0.999647 -9.699 0.025173 79.730 0.008493 82.110
           0.008493 82.682 0.008493 82.110 0.999928 -6.951
4.34000000 0.025288 80.995 0.999644 -9.744 0.008533 82.648
           0.999644 -9.744 0.025288 79.682 0.008533 82.074
           0.008533 82.648 0.008533 82.074 0.999927 -6.983
4.36000000 0.025404 80.953 0.999641 -9.789 0.008572 82.614
           0.999641 -9.789 0.025404 79.634 0.008572 82.037
           0.008572 82.614 0.008572 82.037 0.999927 -7.015
4.38000000 0.025519 80.912 0.999637 -9.834 0.008611 82.580
           0.999637 -9.834 0.025519 79.587 0.008612 82.001
           0.008611 82.580 0.008612 82.001 0.999926 -7.048
4.40000000 0.025635 80.870 0.999634 -9.879 0.008651 82.546
           0.999634 -9.879 0.025634 79.539 0.008651 81.964
           0.008651 82.546 0.008651 81.964 0.999925 -7.080
4.42000000 0.025750 80.829 0.999631 -9.924 0.008690 82.512
           0.999631 -9.924 0.025750 79.492 0.008691 81.928
           0.008690 82.512 0.008691 81.928 0.999924 -7.112
4.44000000 0.025865 80.788 0.999627 -9.968 0.008730 82.478
           0.999627 -9.968 0.025865 79.444 0.008730 81.891
           0.008730 82.478 0.008730 81.891 0.999924 -7.144
4.46000000 0.025980 80.746 0.999624 -10.01 0.008769 82.444
           0.999624 -10.01 0.025980 79.397 0.008769 81.855
           0.008769 82.444 0.008769 81.855 0.999923 -7.177
4.48000000 0.026096 80.705 0.999621 -10.06 0.008809 82.411
           0.999621 -10.06 0.026096 79.349 0.008809 81.818
           0.008809 82.411 0.008809 81.818 0.999922 -7.209
4.50000000 0.026211 80.663 0.999617 -10.10 0.008848 82.377
           0.999617 -10.10 0.026211 79.302 0.008848 81.781
           0.008848 82.377 0.008848 81.781 0.999922 -7.241
4.52000000 0.026326 80.622 0.999614 -10.15 0.008887 82.343
           0.999614 -10.15 0.026326 79.254 0.008888 81.745
           0.008887 82.343 0.008888 81.745 0.999921 -7.273
4.54000000 0.026441 80.580 0.999611 -10.19 0.008927 82.309
           0.999611 -10.19 0.026441 79.207 0.008927 81.708
           0.008927 82.309 0.008927 81.708 0.999920 -7.305
4.56000000 0.026557 80.539 0.999607 -10.24 0.008966 82.275
           0.999607 -10.24 0.026556 79.159 0.008967 81.672
           0.008966 82.275 0.008967 81.672 0.999920 -7.338
4.58000000 0.026672 80.497 0.999604 -10.28 0.009006 82.241
           0.999604 -10.28 0.026672 79.112 0.009006 81.635
           0.009006 82.241 0.009006 81.635 0.999919 -7.370
4.60000000 0.026787 80.456 0.999600 -10.33 0.009045 82.207
           0.999600 -10.33 0.026787 79.064 0.009046 81.599
           0.009045 82.207 0.009046 81.599 0.999918 -7.402
4.62000000 0.026902 80.414 0.999597 -10.37 0.009085 82.173
           0.999597 -10.37 0.026902 79.016 0.009085 81.562
           0.009085 82.173 0.009085 81.562 0.999917 -7.434
4.64000000 0.027017 80.373 0.999593 -10.42 0.009124 82.139
           0.999593 -10.42 0.027017 78.969 0.009124 81.525
           0.009124 82.139 0.009124 81.525 0.999917 -7.467
4.66000000 0.027132 80.332 0.999590 -10.46 0.009163 82.105
           0.999590 -10.46 0.027132 78.921 0.009164 81.489
           0.009163 82.105 0.009164 81.489 0.999916 -7.499
4.68000000 0.027247 80.290 0.999586 -10.51 0.009203 82.071
           0.999586 -10.51 0.027247 78.874 0.009203 81.452
           0.009203 82.071 0.009203 81.452 0.999915 -7.531
4.70000000 0.027362 80.249 0.999583 -10.55 0.009242 82.037
           0.999583 -10.55 0.027362 78.826 0.009243 81.416
           0.009242 82.037 0.009243 81.416 0.999915 -7.563
4.72000000 0.027478 80.207 0.999579 -10.60 0.009282 82.003
           0.999579 -10.60 0.027477 78.779 0.009282 81.379
           0.009282 82.003 0.009282 81.379 0.999914 -7.595
4.74000000 0.027593 80.166 0.999576 -10.64 0.009321 81.969
           0.999576 -10.64 0.027592 78.731 0.009322 81.343
           0.009321 81.969 0.009322 81.343 0.999913 -7.628
4.76000000 0.027708 80.124 0.999572 -10.69 0.009361 81.935
           0.999572 -10.69 0.027707 78.684 0.009361 81.306
           0.009361 81.935 0.009361 81.306 0.999912 -7.660
4.78000000 0.027823 80.083 0.999569 -10.73 0.009400 81.901
           0.999569 -10.73 0.027822 78.636 0.009401 81.269
           0.009400 81.901 0.009401 81.269 0.999912 -7.692
4.80000000 0.027938 80.042 0.999565 -10.78 0.009440 81.867
           0.999565 -10.78 0.027937 78.589 0.009440 81.233
           0.009440 81.867 0.009440 81.233 0.999911 -7.724
4.82000000 0.028053 80.000 0.999562 -10.82 0.009479 81.833
           0.999562 -10.82 0.028052 78.541 0.009479 81.196
           0.009479 81.833 0.009479 81.196 0.999910 -7.757
4.84000000 0.028168 79.959 0.999558 -10.87 0.009519 81.800
           0.999558 -10.87 0.028167 78.493 0.009519 81.160
           0.009519 81.800 0.009519 81.160 0.999909 -7.789
4.86000000 0.028282 79.917 0.999554 -10.91 0.009558 81.766
           0.999554 -10.91 0.028282 78.446 0.009558 81.123
           0.009558 81.766 0.009558 81.123 0.999909 -7.821
4.88000000 0.028397 79.876 0.999551 -10.96 0.009597 81.732
           0.999551 -10.96 0.028397 78.398 0.009598 81.087
           0.009597 81.732 0.009598 81.087 0.999908 -7.853
!< P1 F=4.88 Eeff=(7.47586163 0.0) Z0=(59.3563496 0.0) R=0.0 C=0.0043333 
!< P2 F=4.88 Eeff=(7.62766841 0.0) Z0=(57.1658267 0.0) R=0.0 C=0.00427574 
!< P3 F=4.88 Eeff=(7.40608908 0.0) Z0=(61.4214658 0.0) R=0.0 C=0.00441628 
4.90000000 0.028512 79.834 0.999547 -11.00 0.009637 81.698
           0.999547 -11.00 0.028512 78.351 0.009637 81.050
           0.009637 81.698 0.009637 81.050 0.999907 -7.886
4.92000000 0.028627 79.793 0.999543 -11.05 0.009676 81.664
           0.999543 -11.05 0.028627 78.303 0.009677 81.013
           0.009676 81.664 0.009677 81.013 0.999906 -7.918
4.94000000 0.028742 79.752 0.999540 -11.09 0.009716 81.630
           0.999540 -11.09 0.028742 78.256 0.009716 80.977
           0.009716 81.630 0.009716 80.977 0.999906 -7.950
4.96000000 0.028857 79.710 0.999536 -11.14 0.009755 81.596
           0.999536 -11.14 0.028857 78.208 0.009756 80.940
           0.009755 81.596 0.009756 80.940 0.999905 -7.982
4.98000000 0.028972 79.669 0.999532 -11.18 0.009795 81.562
           0.999532 -11.18 0.028972 78.161 0.009795 80.904
           0.009795 81.562 0.009795 80.904 0.999904 -8.015
5.00000000 0.029086 79.627 0.999529 -11.23 0.009834 81.528
           0.999529 -11.23 0.029086 78.113 0.009835 80.867
           0.009834 81.528 0.009835 80.867 0.999903 -8.047
5.02000000 0.029201 79.586 0.999525 -11.27 0.009874 81.494
           0.999525 -11.27 0.029201 78.066 0.009874 80.830
           0.009874 81.494 0.009874 80.830 0.999902 -8.079
5.04000000 0.029316 79.544 0.999521 -11.31 0.009913 81.460
           0.999521 -11.31 0.029316 78.018 0.009914 80.794
           0.009913 81.460 0.009914 80.794 0.999902 -8.111
5.06000000 0.029431 79.503 0.999517 -11.36 0.009953 81.426
           0.999517 -11.36 0.029431 77.971 0.009953 80.757
           0.009953 81.426 0.009953 80.757 0.999901 -8.144
5.08000000 0.029545 79.462 0.999513 -11.40 0.009992 81.392
           0.999513 -11.40 0.029545 77.923 0.009993 80.721
           0.009992 81.392 0.009993 80.721 0.999900 -8.176
5.10000000 0.029660 79.420 0.999510 -11.45 0.010032 81.358
           0.999510 -11.45 0.029660 77.875 0.010032 80.684
           0.010032 81.358 0.010032 80.684 0.999899 -8.208
5.12000000 0.029775 79.379 0.999506 -11.49 0.010071 81.324
           0.999506 -11.49 0.029775 77.828 0.010072 80.648
           0.010071 81.324 0.010072 80.648 0.999899 -8.240
5.14000000 0.029890 79.337 0.999502 -11.54 0.010111 81.290
           0.999502 -11.54 0.029889 77.780 0.010111 80.611
           0.010111 81.290 0.010111 80.611 0.999898 -8.273
5.16000000 0.030004 79.296 0.999498 -11.58 0.010150 81.256
           0.999498 -11.58 0.030004 77.733 0.010151 80.574
           0.010150 81.256 0.010151 80.574 0.999897 -8.305
5.18000000 0.030119 79.254 0.999494 -11.63 0.010190 81.222
           0.999494 -11.63 0.030119 77.685 0.010190 80.538
           0.010190 81.222 0.010190 80.538 0.999896 -8.337
5.20000000 0.030233 79.213 0.999491 -11.67 0.010229 81.188
           0.999491 -11.67 0.030233 77.638 0.010230 80.501
           0.010229 81.188 0.010230 80.501 0.999895 -8.369
5.22000000 0.030348 79.172 0.999487 -11.72 0.010268 81.154
           0.999487 -11.72 0.030348 77.590 0.010269 80.465
           0.010268 81.154 0.010269 80.465 0.999895 -8.402
5.24000000 0.030463 79.130 0.999483 -11.76 0.010308 81.120
           0.999483 -11.76 0.030463 77.543 0.010309 80.428
           0.010308 81.120 0.010309 80.428 0.999894 -8.434
5.26000000 0.030577 79.089 0.999479 -11.81 0.010347 81.086
           0.999479 -11.81 0.030577 77.495 0.010348 80.391
           0.010347 81.086 0.010348 80.391 0.999893 -8.466
5.28000000 0.030692 79.047 0.999475 -11.85 0.010387 81.052
           0.999475 -11.85 0.030692 77.448 0.010388 80.355
           0.010387 81.052 0.010388 80.355 0.999892 -8.498
5.30000000 0.030806 79.006 0.999471 -11.90 0.010426 81.018
           0.999471 -11.90 0.030806 77.400 0.010427 80.318
           0.010426 81.018 0.010427 80.318 0.999891 -8.531
5.32000000 0.030921 78.964 0.999467 -11.94 0.010466 80.984
           0.999467 -11.94 0.030921 77.353 0.010467 80.282
           0.010466 80.984 0.010467 80.282 0.999890 -8.563
5.34000000 0.031035 78.923 0.999463 -11.99 0.010505 80.950
           0.999463 -11.99 0.031035 77.305 0.010506 80.245
           0.010505 80.950 0.010506 80.245 0.999890 -8.595
5.36000000 0.031150 78.882 0.999459 -12.03 0.010545 80.917
           0.999459 -12.03 0.031150 77.257 0.010546 80.209
           0.010545 80.917 0.010546 80.209 0.999889 -8.627
5.38000000 0.031264 78.840 0.999455 -12.08 0.010584 80.883
           0.999455 -12.08 0.031264 77.210 0.010585 80.172
           0.010584 80.883 0.010585 80.172 0.999888 -8.660
5.40000000 0.031379 78.799 0.999451 -12.12 0.010624 80.849
           0.999451 -12.12 0.031378 77.162 0.010625 80.135
           0.010624 80.849 0.010625 80.135 0.999887 -8.692
5.42000000 0.031493 78.757 0.999447 -12.17 0.010663 80.815
           0.999447 -12.17 0.031493 77.115 0.010664 80.099
           0.010663 80.815 0.010664 80.099 0.999886 -8.724
5.44000000 0.031607 78.716 0.999443 -12.21 0.010703 80.781
           0.999443 -12.21 0.031607 77.067 0.010704 80.062
           0.010703 80.781 0.010704 80.062 0.999885 -8.756
5.46000000 0.031722 78.675 0.999439 -12.26 0.010742 80.747
           0.999439 -12.26 0.031722 77.020 0.010743 80.026
           0.010742 80.747 0.010743 80.026 0.999885 -8.789
5.48000000 0.031836 78.633 0.999435 -12.30 0.010782 80.713
           0.999435 -12.30 0.031836 76.972 0.010783 79.989
           0.010782 80.713 0.010783 79.989 0.999884 -8.821
5.50000000 0.031950 78.592 0.999431 -12.35 0.010821 80.679
           0.999431 -12.35 0.031950 76.925 0.010822 79.952
           0.010821 80.679 0.010822 79.952 0.999883 -8.853
5.52000000 0.032065 78.550 0.999427 -12.39 0.010861 80.645
           0.999427 -12.39 0.032065 76.877 0.010862 79.916
           0.010861 80.645 0.010862 79.916 0.999882 -8.885
5.54000000 0.032179 78.509 0.999423 -12.44 0.010900 80.611
           0.999423 -12.44 0.032179 76.830 0.010901 79.879
           0.010900 80.611 0.010901 79.879 0.999881 -8.918
5.56000000 0.032293 78.467 0.999419 -12.48 0.010940 80.577
           0.999419 -12.48 0.032293 76.782 0.010941 79.843
           0.010940 80.577 0.010941 79.843 0.999880 -8.950
5.58000000 0.032408 78.426 0.999414 -12.53 0.010980 80.543
           0.999414 -12.53 0.032407 76.735 0.010980 79.806
           0.010980 80.543 0.010980 79.806 0.999879 -8.982
5.60000000 0.032522 78.385 0.999410 -12.57 0.011019 80.509
           0.999410 -12.57 0.032522 76.687 0.011020 79.769
           0.011019 80.509 0.011020 79.769 0.999879 -9.014
5.62000000 0.032636 78.343 0.999406 -12.62 0.011059 80.475
           0.999406 -12.62 0.032636 76.639 0.011059 79.733
           0.011059 80.475 0.011059 79.733 0.999878 -9.047
5.64000000 0.032750 78.302 0.999402 -12.66 0.011098 80.441
           0.999402 -12.66 0.032750 76.592 0.011099 79.696
           0.011098 80.441 0.011099 79.696 0.999877 -9.079
5.66000000 0.032864 78.260 0.999398 -12.71 0.011138 80.407
           0.999398 -12.71 0.032864 76.544 0.011138 79.660
           0.011138 80.407 0.011138 79.660 0.999876 -9.111
5.68000000 0.032978 78.219 0.999394 -12.75 0.011177 80.373
           0.999394 -12.75 0.032978 76.497 0.011178 79.623
           0.011177 80.373 0.011178 79.623 0.999875 -9.143
5.70000000 0.033093 78.178 0.999389 -12.80 0.011217 80.339
           0.999389 -12.80 0.033092 76.449 0.011217 79.586
           0.011217 80.339 0.011217 79.586 0.999874 -9.176
5.72000000 0.033207 78.136 0.999385 -12.84 0.011256 80.305
           0.999385 -12.84 0.033207 76.402 0.011257 79.550
           0.011256 80.305 0.011257 79.550 0.999873 -9.208
5.74000000 0.033321 78.095 0.999381 -12.89 0.011296 80.271
           0.999381 -12.89 0.033321 76.354 0.011296 79.513
           0.011296 80.271 0.011296 79.513 0.999872 -9.240
5.76000000 0.033435 78.053 0.999377 -12.93 0.011335 80.237
           0.999377 -12.93 0.033435 76.307 0.011336 79.477
           0.011335 80.237 0.011336 79.477 0.999871 -9.273
5.78000000 0.033549 78.012 0.999372 -12.98 0.011375 80.203
           0.999372 -12.98 0.033549 76.259 0.011376 79.440
           0.011375 80.203 0.011376 79.440 0.999871 -9.305
5.80000000 0.033663 77.971 0.999368 -13.02 0.011414 80.169
           0.999368 -13.02 0.033663 76.212 0.011415 79.403
           0.011414 80.169 0.011415 79.403 0.999870 -9.337
5.82000000 0.033777 77.929 0.999364 -13.06 0.011454 80.135
           0.999364 -13.06 0.033777 76.164 0.011455 79.367
           0.011454 80.135 0.011455 79.367 0.999869 -9.369
5.84000000 0.033891 77.888 0.999359 -13.11 0.011493 80.101
           0.999359 -13.11 0.033891 76.117 0.011494 79.330
           0.011493 80.101 0.011494 79.330 0.999868 -9.402
5.86000000 0.034005 77.846 0.999355 -13.15 0.011533 80.067
           0.999355 -13.15 0.034005 76.069 0.011534 79.294
           0.011533 80.067 0.011534 79.294 0.999867 -9.434
5.88000000 0.034119 77.805 0.999351 -13.20 0.011572 80.033
           0.999351 -13.20 0.034119 76.022 0.011573 79.257
           0.011572 80.033 0.011573 79.257 0.999866 -9.466
5.90000000 0.034233 77.763 0.999346 -13.24 0.011612 79.999
           0.999346 -13.24 0.034232 75.974 0.011613 79.220
           0.011612 79.999 0.011613 79.220 0.999865 -9.498
5.92000000 0.034347 77.722 0.999342 -13.29 0.011652 79.965
           0.999342 -13.29 0.034346 75.926 0.011652 79.184
           0.011652 79.965 0.011652 79.184 0.999864 -9.531
5.94000000 0.034460 77.681 0.999338 -13.33 0.011691 79.931
           0.999338 -13.33 0.034460 75.879 0.011692 79.147
           0.011691 79.931 0.011692 79.147 0.999863 -9.563
5.96000000 0.034574 77.639 0.999333 -13.38 0.011731 79.897
           0.999333 -13.38 0.034574 75.831 0.011732 79.110
           0.011731 79.897 0.011732 79.110 0.999862 -9.595
5.98000000 0.034688 77.598 0.999329 -13.42 0.011770 79.863
           0.999329 -13.42 0.034688 75.784 0.011771 79.074
           0.011770 79.863 0.011771 79.074 0.999861 -9.628
6.00000000 0.034802 77.556 0.999324 -13.47 0.011810 79.829
           0.999324 -13.47 0.034802 75.736 0.011811 79.037
           0.011810 79.829 0.011811 79.037 0.999861 -9.660
!< P1 F=6.0 Eeff=(7.47588731 0.0) Z0=(59.3562144 0.0) R=0.0 C=0.00433329 
!< P2 F=6.0 Eeff=(7.62769223 0.0) Z0=(57.1657013 0.0) R=0.0 C=0.00427574 
!< P3 F=6.0 Eeff=(7.4061157 0.0) Z0=(61.4213301 0.0) R=0.0 C=0.00441628 
6.02000000 0.034916 77.515 0.999320 -13.51 0.011849 79.795
           0.999320 -13.51 0.034915 75.689 0.011850 79.001
           0.011849 79.795 0.011850 79.001 0.999860 -9.692
6.04000000 0.035029 77.474 0.999316 -13.56 0.011889 79.761
           0.999316 -13.56 0.035029 75.641 0.011890 78.964
           0.011889 79.761 0.011890 78.964 0.999859 -9.724
6.06000000 0.035143 77.432 0.999311 -13.60 0.011928 79.727
           0.999311 -13.60 0.035143 75.594 0.011929 78.927
           0.011928 79.727 0.011929 78.927 0.999858 -9.757
6.08000000 0.035257 77.391 0.999307 -13.65 0.011968 79.693
           0.999307 -13.65 0.035257 75.546 0.011969 78.891
           0.011968 79.693 0.011969 78.891 0.999857 -9.789
6.10000000 0.035371 77.350 0.999302 -13.69 0.012008 79.659
           0.999302 -13.69 0.035370 75.499 0.012009 78.854
           0.012008 79.659 0.012009 78.854 0.999856 -9.821
6.12000000 0.035484 77.308 0.999298 -13.74 0.012047 79.625
           0.999298 -13.74 0.035484 75.451 0.012048 78.818
           0.012047 79.625 0.012048 78.818 0.999855 -9.854
6.14000000 0.035598 77.267 0.999293 -13.78 0.012087 79.591
           0.999293 -13.78 0.035598 75.404 0.012088 78.781
           0.012087 79.591 0.012088 78.781 0.999854 -9.886
6.16000000 0.035711 77.225 0.999289 -13.83 0.012126 79.557
           0.999289 -13.83 0.035711 75.356 0.012127 78.744
           0.012126 79.557 0.012127 78.744 0.999853 -9.918
6.18000000 0.035825 77.184 0.999284 -13.87 0.012166 79.523
           0.999284 -13.87 0.035825 75.309 0.012167 78.708
           0.012166 79.523 0.012167 78.708 0.999852 -9.950
6.20000000 0.035939 77.143 0.999279 -13.92 0.012205 79.489
           0.999279 -13.92 0.035938 75.261 0.012206 78.671
           0.012205 79.489 0.012206 78.671 0.999851 -9.983
6.22000000 0.036052 77.101 0.999275 -13.96 0.012245 79.455
           0.999275 -13.96 0.036052 75.213 0.012246 78.634
           0.012245 79.455 0.012246 78.634 0.999850 -10.01
6.24000000 0.036166 77.060 0.999270 -14.01 0.012285 79.421
           0.999270 -14.01 0.036165 75.166 0.012286 78.598
           0.012285 79.421 0.012286 78.598 0.999849 -10.05
6.26000000 0.036279 77.019 0.999266 -14.05 0.012324 79.387
           0.999266 -14.05 0.036279 75.118 0.012325 78.561
           0.012324 79.387 0.012325 78.561 0.999848 -10.08
6.28000000 0.036393 76.977 0.999261 -14.10 0.012364 79.353
           0.999261 -14.10 0.036392 75.071 0.012365 78.525
           0.012364 79.353 0.012365 78.525 0.999847 -10.11
6.30000000 0.036506 76.936 0.999256 -14.14 0.012403 79.319
           0.999256 -14.14 0.036506 75.023 0.012404 78.488
           0.012403 79.319 0.012404 78.488 0.999846 -10.14
6.32000000 0.036620 76.895 0.999252 -14.19 0.012443 79.285
           0.999252 -14.19 0.036619 74.976 0.012444 78.451
           0.012443 79.285 0.012444 78.451 0.999845 -10.18
6.34000000 0.036733 76.853 0.999247 -14.23 0.012483 79.251
           0.999247 -14.23 0.036733 74.928 0.012484 78.415
           0.012483 79.251 0.012484 78.415 0.999844 -10.21
6.36000000 0.036846 76.812 0.999242 -14.28 0.012522 79.217
           0.999242 -14.28 0.036846 74.881 0.012523 78.378
           0.012522 79.217 0.012523 78.378 0.999843 -10.24
6.38000000 0.036960 76.770 0.999238 -14.32 0.012562 79.183
           0.999238 -14.32 0.036959 74.833 0.012563 78.341
           0.012562 79.183 0.012563 78.341 0.999842 -10.27
6.40000000 0.037073 76.729 0.999233 -14.37 0.012601 79.149
           0.999233 -14.37 0.037073 74.786 0.012602 78.305
           0.012601 79.149 0.012602 78.305 0.999841 -10.31
6.42000000 0.037186 76.688 0.999228 -14.41 0.012641 79.115
           0.999228 -14.41 0.037186 74.738 0.012642 78.268
           0.012641 79.115 0.012642 78.268 0.999840 -10.34
6.44000000 0.037300 76.646 0.999224 -14.46 0.012681 79.081
           0.999224 -14.46 0.037299 74.691 0.012682 78.232
           0.012681 79.081 0.012682 78.232 0.999839 -10.37
6.46000000 0.037413 76.605 0.999219 -14.50 0.012720 79.047
           0.999219 -14.50 0.037413 74.643 0.012721 78.195
           0.012720 79.047 0.012721 78.195 0.999838 -10.40
6.48000000 0.037526 76.564 0.999214 -14.55 0.012760 79.013
           0.999214 -14.55 0.037526 74.596 0.012761 78.158
           0.012760 79.013 0.012761 78.158 0.999837 -10.43
6.50000000 0.037639 76.522 0.999209 -14.59 0.012799 78.979
           0.999209 -14.59 0.037639 74.548 0.012800 78.122
           0.012799 78.979 0.012800 78.122 0.999836 -10.47
6.52000000 0.037753 76.481 0.999205 -14.63 0.012839 78.945
           0.999205 -14.63 0.037752 74.501 0.012840 78.085
           0.012839 78.945 0.012840 78.085 0.999835 -10.50
6.54000000 0.037866 76.440 0.999200 -14.68 0.012879 78.911
           0.999200 -14.68 0.037866 74.453 0.012880 78.048
           0.012879 78.911 0.012880 78.048 0.999834 -10.53
6.56000000 0.037979 76.398 0.999195 -14.72 0.012918 78.877
           0.999195 -14.72 0.037979 74.405 0.012919 78.012
           0.012918 78.877 0.012919 78.012 0.999833 -10.56
6.58000000 0.038092 76.357 0.999190 -14.77 0.012958 78.843
           0.999190 -14.77 0.038092 74.358 0.012959 77.975
           0.012958 78.843 0.012959 77.975 0.999832 -10.60
6.60000000 0.038205 76.316 0.999185 -14.81 0.012997 78.809
           0.999185 -14.81 0.038205 74.310 0.012999 77.939
           0.012997 78.809 0.012999 77.939 0.999831 -10.63
6.62000000 0.038318 76.274 0.999181 -14.86 0.013037 78.775
           0.999181 -14.86 0.038318 74.263 0.013038 77.902
           0.013037 78.775 0.013038 77.902 0.999830 -10.66
6.64000000 0.038431 76.233 0.999176 -14.90 0.013077 78.741
           0.999176 -14.90 0.038431 74.215 0.013078 77.865
           0.013077 78.741 0.013078 77.865 0.999829 -10.69
6.66000000 0.038544 76.192 0.999171 -14.95 0.013116 78.707
           0.999171 -14.95 0.038544 74.168 0.013117 77.829
           0.013116 78.707 0.013117 77.829 0.999828 -10.73
6.68000000 0.038657 76.150 0.999166 -14.99 0.013156 78.673
           0.999166 -14.99 0.038657 74.120 0.013157 77.792
           0.013156 78.673 0.013157 77.792 0.999827 -10.76
6.70000000 0.038770 76.109 0.999161 -15.04 0.013195 78.638
           0.999161 -15.04 0.038770 74.073 0.013197 77.755
           0.013195 78.638 0.013197 77.755 0.999826 -10.79
6.72000000 0.038883 76.068 0.999156 -15.08 0.013235 78.604
           0.999156 -15.08 0.038883 74.025 0.013236 77.719
           0.013235 78.604 0.013236 77.719 0.999825 -10.82
6.74000000 0.038996 76.026 0.999151 -15.13 0.013275 78.570
           0.999151 -15.13 0.038996 73.978 0.013276 77.682
           0.013275 78.570 0.013276 77.682 0.999824 -10.85
6.76000000 0.039109 75.985 0.999146 -15.17 0.013314 78.536
           0.999146 -15.17 0.039109 73.930 0.013316 77.645
           0.013314 78.536 0.013316 77.645 0.999823 -10.89
6.78000000 0.039222 75.943 0.999141 -15.22 0.013354 78.502
           0.999141 -15.22 0.039222 73.883 0.013355 77.609
           0.013354 78.502 0.013355 77.609 0.999822 -10.92
6.80000000 0.039335 75.902 0.999136 -15.26 0.013394 78.468
           0.999136 -15.26 0.039335 73.835 0.013395 77.572
           0.013394 78.468 0.013395 77.572 0.999821 -10.95
6.82000000 0.039448 75.861 0.999131 -15.31 0.013433 78.434
           0.999131 -15.31 0.039447 73.788 0.013435 77.535
           0.013433 78.434 0.013435 77.535 0.999820 -10.98
6.84000000 0.039560 75.819 0.999126 -15.35 0.013473 78.400
           0.999126 -15.35 0.039560 73.740 0.013474 77.499
           0.013473 78.400 0.013474 77.499 0.999819 -11.02
6.86000000 0.039673 75.778 0.999121 -15.40 0.013513 78.366
           0.999121 -15.40 0.039673 73.693 0.013514 77.462
           0.013513 78.366 0.013514 77.462 0.999817 -11.05
6.88000000 0.039786 75.737 0.999116 -15.44 0.013552 78.332
           0.999116 -15.44 0.039786 73.645 0.013554 77.426
           0.013552 78.332 0.013554 77.426 0.999816 -11.08
6.90000000 0.039899 75.695 0.999111 -15.49 0.013592 78.298
           0.999111 -15.49 0.039898 73.597 0.013593 77.389
           0.013592 78.298 0.013593 77.389 0.999815 -11.11
6.92000000 0.040011 75.654 0.999106 -15.53 0.013632 78.264
           0.999106 -15.53 0.040011 73.550 0.013633 77.352
           0.013632 78.264 0.013633 77.352 0.999814 -11.15
6.94000000 0.040124 75.613 0.999101 -15.58 0.013671 78.230
           0.999101 -15.58 0.040124 73.502 0.013673 77.316
           0.013671 78.230 0.013673 77.316 0.999813 -11.18
6.96000000 0.040237 75.571 0.999096 -15.62 0.013711 78.196
           0.999096 -15.62 0.040236 73.455 0.013712 77.279
           0.013711 78.196 0.013712 77.279 0.999812 -11.21
6.98000000 0.040349 75.530 0.999091 -15.67 0.013750 78.162
           0.999091 -15.67 0.040349 73.407 0.013752 77.242
           0.013750 78.162 0.013752 77.242 0.999811 -11.24
7.00000000 0.040462 75.489 0.999086 -15.71 0.013790 78.128
           0.999086 -15.71 0.040462 73.360 0.013792 77.206
           0.013790 78.128 0.013792 77.206 0.999810 -11.27
7.02000000 0.040575 75.447 0.999081 -15.76 0.013830 78.094
           0.999081 -15.76 0.040574 73.312 0.013831 77.169
           0.013830 78.094 0.013831 77.169 0.999809 -11.31
7.04000000 0.040687 75.406 0.999076 -15.80 0.013869 78.060
           0.999076 -15.80 0.040687 73.265 0.013871 77.132
           0.013869 78.060 0.013871 77.132 0.999808 -11.34
7.06000000 0.040800 75.365 0.999071 -15.85 0.013909 78.026
           0.999071 -15.85 0.040799 73.217 0.013911 77.096
           0.013909 78.026 0.013911 77.096 0.999807 -11.37
7.08000000 0.040912 75.323 0.999065 -15.89 0.013949 77.992
           0.999065 -15.89 0.040912 73.170 0.013950 77.059
           0.013949 77.992 0.013950 77.059 0.999805 -11.40
7.10000000 0.041025 75.282 0.999060 -15.94 0.013988 77.958
           0.999060 -15.94 0.041024 73.122 0.013990 77.022
           0.013988 77.958 0.013990 77.022 0.999804 -11.44
7.12000000 0.041137 75.241 0.999055 -15.98 0.014028 77.924
           0.999055 -15.98 0.041137 73.075 0.014030 76.986
           0.014028 77.924 0.014030 76.986 0.999803 -11.47
7.14000000 0.041249 75.199 0.999050 -16.02 0.014068 77.889
           0.999050 -16.02 0.041249 73.027 0.014069 76.949
           0.014068 77.889 0.014069 76.949 0.999802 -11.50
7.16000000 0.041362 75.158 0.999045 -16.07 0.014107 77.855
           0.999045 -16.07 0.041362 72.980 0.014109 76.912
           0.014107 77.855 0.014109 76.912 0.999801 -11.53
7.18000000 0.041474 75.117 0.999039 -16.11 0.014147 77.821
           0.999039 -16.11 0.041474 72.932 0.014149 76.876
           0.014147 77.821 0.014149 76.876 0.999800 -11.57
7.20000000 0.041587 75.075 0.999034 -16.16 0.014187 77.787
           0.999034 -16.16 0.041586 72.885 0.014188 76.839
           0.014187 77.787 0.014188 76.839 0.999799 -11.60
7.22000000 0.041699 75.034 0.999029 -16.20 0.014227 77.753
           0.999029 -16.20 0.041699 72.837 0.014228 76.802
           0.014227 77.753 0.014228 76.802 0.999798 -11.63
7.24000000 0.041811 74.993 0.999024 -16.25 0.014266 77.719
           0.999024 -16.25 0.041811 72.790 0.014268 76.766
           0.014266 77.719 0.014268 76.766 0.999797 -11.66