! Sonnet Data File
! From: em Version : 15.52
! From Project: CPW_gap_coupler_3port_1um_FL_TS_6um
! Data is De-embedded 
! Data File Written: 08/14/2018 17:24:40
!< HDATE 08/14/2018 17:19:51
!< MDATE 08/14/2018 17:19:51
!< PARAMS
!< gap = 2.0
!< cpwS = 5.0
!< cpwS1 = 5.0
!< feedW = 12.0
!< feedS1 = 5.0
!< cond_length = 544.0
!< inner_length = 526.0
!< hangerW = 12.0000175
!< open_gap = 22.0
!< coupler_length = 550.0
!< END PARAMS
# GHZ S MA R 50.00000
4.00000000 0.026080 81.871 0.999498 -9.103 0.017971 74.845
           0.999498 -9.103 0.026023 80.625 0.018053 84.389
           0.017971 74.845 0.018053 84.389 0.999676 -13.13
!< P1 F=4.0 Eeff=(7.47584511 0.0) Z0=(59.3564362 0.0) R=0.0 C=0.0043333 
!< P2 F=4.0 Eeff=(7.6276531 0.0) Z0=(57.165907 0.0) R=0.0 C=0.00427574 
!< P3 F=4.0 Eeff=(7.39640425 0.0) Z0=(61.3767639 0.0) R=0.0 C=0.00441582 
4.02000000 0.026210 81.831 0.999493 -9.149 0.018060 74.769
           0.999493 -9.149 0.026152 80.578 0.018145 84.361
           0.018060 74.769 0.018145 84.361 0.999672 -13.20
4.04000000 0.026340 81.790 0.999488 -9.194 0.018150 74.693
           0.999488 -9.194 0.026281 80.531 0.018236 84.332
           0.018150 74.693 0.018236 84.332 0.999669 -13.26
4.06000000 0.026469 81.749 0.999483 -9.240 0.018240 74.617
           0.999483 -9.240 0.026410 80.484 0.018327 84.304
           0.018240 74.617 0.018327 84.304 0.999666 -13.33
4.08000000 0.026599 81.708 0.999478 -9.285 0.018330 74.541
           0.999478 -9.285 0.026538 80.437 0.018418 84.275
           0.018330 74.541 0.018418 84.275 0.999663 -13.40
4.10000000 0.026729 81.668 0.999473 -9.331 0.018420 74.465
           0.999473 -9.331 0.026667 80.391 0.018509 84.247
           0.018420 74.465 0.018509 84.247 0.999659 -13.46
4.12000000 0.026859 81.627 0.999468 -9.376 0.018510 74.389
           0.999468 -9.376 0.026796 80.344 0.018600 84.218
           0.018510 74.389 0.018600 84.218 0.999656 -13.53
4.14000000 0.026988 81.586 0.999463 -9.422 0.018600 74.313
           0.999463 -9.422 0.026925 80.297 0.018692 84.190
           0.018600 74.313 0.018692 84.190 0.999653 -13.59
4.16000000 0.027118 81.546 0.999457 -9.467 0.018690 74.237
           0.999457 -9.467 0.027054 80.250 0.018783 84.161
           0.018690 74.237 0.018783 84.161 0.999649 -13.66
4.18000000 0.027248 81.505 0.999452 -9.513 0.018779 74.162
           0.999452 -9.513 0.027182 80.203 0.018874 84.133
           0.018779 74.162 0.018874 84.133 0.999646 -13.73
4.20000000 0.027377 81.464 0.999447 -9.558 0.018869 74.086
           0.999447 -9.558 0.027311 80.156 0.018965 84.104
           0.018869 74.086 0.018965 84.104 0.999642 -13.79
4.22000000 0.027507 81.424 0.999442 -9.604 0.018959 74.010
           0.999442 -9.604 0.027440 80.110 0.019057 84.076
           0.018959 74.010 0.019057 84.076 0.999639 -13.86
4.24000000 0.027636 81.383 0.999436 -9.649 0.019049 73.934
           0.999436 -9.649 0.027568 80.063 0.019148 84.047
           0.019049 73.934 0.019148 84.047 0.999636 -13.92
4.26000000 0.027766 81.342 0.999431 -9.695 0.019139 73.858
           0.999431 -9.695 0.027697 80.016 0.019239 84.019
           0.019139 73.858 0.019239 84.019 0.999632 -13.99
4.28000000 0.027896 81.301 0.999426 -9.740 0.019229 73.782
           0.999426 -9.740 0.027826 79.969 0.019330 83.990
           0.019229 73.782 0.019330 83.990 0.999629 -14.06
4.30000000 0.028025 81.261 0.999420 -9.786 0.019319 73.706
           0.999420 -9.786 0.027954 79.922 0.019422 83.962
           0.019319 73.706 0.019422 83.962 0.999625 -14.12
4.32000000 0.028155 81.220 0.999415 -9.831 0.019409 73.630
           0.999415 -9.831 0.028083 79.875 0.019513 83.933
           0.019409 73.630 0.019513 83.933 0.999622 -14.19
4.34000000 0.028285 81.179 0.999410 -9.877 0.019498 73.554
           0.999410 -9.877 0.028212 79.828 0.019604 83.905
           0.019498 73.554 0.019604 83.905 0.999618 -14.25
4.36000000 0.028414 81.139 0.999404 -9.922 0.019588 73.478
           0.999404 -9.922 0.028340 79.782 0.019696 83.876
           0.019588 73.478 0.019696 83.876 0.999615 -14.32
4.38000000 0.028544 81.098 0.999399 -9.968 0.019678 73.402
           0.999399 -9.968 0.028469 79.735 0.019787 83.847
           0.019678 73.402 0.019787 83.847 0.999611 -14.39
4.40000000 0.028673 81.057 0.999393 -10.01 0.019768 73.326
           0.999393 -10.01 0.028597 79.688 0.019878 83.819
           0.019768 73.326 0.019878 83.819 0.999608 -14.45
4.42000000 0.028803 81.017 0.999388 -10.06 0.019858 73.250
           0.999388 -10.06 0.028726 79.641 0.019970 83.790
           0.019858 73.250 0.019970 83.790 0.999604 -14.52
4.44000000 0.028932 80.976 0.999382 -10.10 0.019948 73.174
           0.999382 -10.10 0.028854 79.594 0.020061 83.762
           0.019948 73.174 0.020061 83.762 0.999600 -14.58
4.46000000 0.029062 80.935 0.999377 -10.15 0.020038 73.098
           0.999377 -10.15 0.028983 79.547 0.020153 83.733
           0.020038 73.098 0.020153 83.733 0.999597 -14.65
4.48000000 0.029191 80.894 0.999371 -10.20 0.020128 73.022
           0.999371 -10.20 0.029111 79.501 0.020244 83.704
           0.020128 73.022 0.020244 83.704 0.999593 -14.72
4.50000000 0.029321 80.854 0.999365 -10.24 0.020218 72.947
           0.999365 -10.24 0.029240 79.454 0.020335 83.676
           0.020218 72.947 0.020335 83.676 0.999589 -14.78
4.52000000 0.029450 80.813 0.999360 -10.29 0.020307 72.871
           0.999360 -10.29 0.029368 79.407 0.020427 83.647
           0.020307 72.871 0.020427 83.647 0.999586 -14.85
4.54000000 0.029580 80.772 0.999354 -10.33 0.020397 72.795
           0.999354 -10.33 0.029496 79.360 0.020518 83.619
           0.020397 72.795 0.020518 83.619 0.999582 -14.91
4.56000000 0.029709 80.732 0.999349 -10.38 0.020487 72.719
           0.999349 -10.38 0.029625 79.313 0.020610 83.590
           0.020487 72.719 0.020610 83.590 0.999578 -14.98
4.58000000 0.029839 80.691 0.999343 -10.42 0.020577 72.643
           0.999343 -10.42 0.029753 79.266 0.020701 83.561
           0.020577 72.643 0.020701 83.561 0.999575 -15.05
4.60000000 0.029968 80.650 0.999337 -10.47 0.020667 72.567
           0.999337 -10.47 0.029881 79.219 0.020793 83.533
           0.020667 72.567 0.020793 83.533 0.999571 -15.11
4.62000000 0.030098 80.610 0.999331 -10.51 0.020757 72.491
           0.999331 -10.51 0.030010 79.173 0.020884 83.504
           0.020757 72.491 0.020884 83.504 0.999567 -15.18
4.64000000 0.030227 80.569 0.999326 -10.56 0.020847 72.415
           0.999326 -10.56 0.030138 79.126 0.020976 83.475
           0.020847 72.415 0.020976 83.475 0.999563 -15.24
4.66000000 0.030356 80.528 0.999320 -10.60 0.020937 72.339
           0.999320 -10.60 0.030266 79.079 0.021067 83.447
           0.020937 72.339 0.021067 83.447 0.999559 -15.31
4.68000000 0.030486 80.487 0.999314 -10.65 0.021027 72.263
           0.999314 -10.65 0.030394 79.032 0.021159 83.418
           0.021027 72.263 0.021159 83.418 0.999556 -15.38
4.70000000 0.030615 80.447 0.999308 -10.70 0.021116 72.187
           0.999308 -10.70 0.030523 78.985 0.021251 83.389
           0.021116 72.187 0.021251 83.389 0.999552 -15.44
4.72000000 0.030745 80.406 0.999302 -10.74 0.021206 72.111
           0.999302 -10.74 0.030651 78.938 0.021342 83.361
           0.021206 72.111 0.021342 83.361 0.999548 -15.51
4.74000000 0.030874 80.365 0.999296 -10.79 0.021296 72.035
           0.999296 -10.79 0.030779 78.892 0.021434 83.332
           0.021296 72.035 0.021434 83.332 0.999544 -15.58
4.76000000 0.031003 80.325 0.999290 -10.83 0.021386 71.959
           0.999290 -10.83 0.030907 78.845 0.021525 83.303
           0.021386 71.959 0.021525 83.303 0.999540 -15.64
4.78000000 0.031133 80.284 0.999284 -10.88 0.021476 71.883
           0.999284 -10.88 0.031035 78.798 0.021617 83.275
           0.021476 71.883 0.021617 83.275 0.999536 -15.71
4.80000000 0.031262 80.243 0.999278 -10.92 0.021566 71.807
           0.999278 -10.92 0.031163 78.751 0.021709 83.246
           0.021566 71.807 0.021709 83.246 0.999532 -15.77
4.82000000 0.031391 80.203 0.999272 -10.97 0.021656 71.731
           0.999272 -10.97 0.031291 78.704 0.021800 83.217
           0.021656 71.731 0.021800 83.217 0.999528 -15.84
4.84000000 0.031521 80.162 0.999266 -11.01 0.021746 71.655
           0.999266 -11.01 0.031419 78.657 0.021892 83.188
           0.021746 71.655 0.021892 83.188 0.999524 -15.91
4.86000000 0.031650 80.121 0.999260 -11.06 0.021836 71.579
           0.999260 -11.06 0.031547 78.611 0.021984 83.160
           0.021836 71.579 0.021984 83.160 0.999520 -15.97
4.88000000 0.031779 80.081 0.999254 -11.10 0.021926 71.503
           0.999254 -11.10 0.031675 78.564 0.022076 83.131
           0.021926 71.503 0.022076 83.131 0.999516 -16.04
4.90000000 0.031908 80.040 0.999248 -11.15 0.022015 71.427
           0.999248 -11.15 0.031803 78.517 0.022167 83.102
           0.022015 71.427 0.022167 83.102 0.999512 -16.10
4.92000000 0.032038 79.999 0.999242 -11.20 0.022105 71.351
           0.999242 -11.20 0.031931 78.470 0.022259 83.073
           0.022105 71.351 0.022259 83.073 0.999508 -16.17
4.94000000 0.032167 79.958 0.999236 -11.24 0.022195 71.275
           0.999236 -11.24 0.032059 78.423 0.022351 83.045
           0.022195 71.275 0.022351 83.045 0.999504 -16.24
4.96000000 0.032296 79.918 0.999230 -11.29 0.022285 71.199
           0.999230 -11.29 0.032187 78.376 0.022443 83.016
           0.022285 71.199 0.022443 83.016 0.999500 -16.30
4.98000000 0.032425 79.877 0.999224 -11.33 0.022375 71.123
           0.999224 -11.33 0.032315 78.330 0.022534 82.987
           0.022375 71.123 0.022534 82.987 0.999496 -16.37
5.00000000 0.032554 79.836 0.999217 -11.38 0.022465 71.047
           0.999217 -11.38 0.032443 78.283 0.022626 82.958
           0.022465 71.047 0.022626 82.958 0.999492 -16.43
5.02000000 0.032684 79.796 0.999211 -11.42 0.022555 70.971
           0.999211 -11.42 0.032571 78.236 0.022718 82.929
           0.022555 70.971 0.022718 82.929 0.999488 -16.50
5.04000000 0.032813 79.755 0.999205 -11.47 0.022645 70.895
           0.999205 -11.47 0.032699 78.189 0.022810 82.901
           0.022645 70.895 0.022810 82.901 0.999484 -16.57
5.06000000 0.032942 79.714 0.999199 -11.51 0.022735 70.819
           0.999199 -11.51 0.032826 78.142 0.022902 82.872
           0.022735 70.819 0.022902 82.872 0.999480 -16.63
5.08000000 0.033071 79.674 0.999192 -11.56 0.022825 70.743
           0.999192 -11.56 0.032954 78.095 0.022994 82.843
           0.022825 70.743 0.022994 82.843 0.999475 -16.70
5.10000000 0.033200 79.633 0.999186 -11.61 0.022914 70.667
           0.999186 -11.61 0.033082 78.049 0.023085 82.814
           0.022914 70.667 0.023085 82.814 0.999471 -16.77
5.12000000 0.033329 79.592 0.999180 -11.65 0.023004 70.591
           0.999180 -11.65 0.033210 78.002 0.023177 82.785
           0.023004 70.591 0.023177 82.785 0.999467 -16.83
5.14000000 0.033459 79.551 0.999173 -11.70 0.023094 70.515
           0.999173 -11.70 0.033337 77.955 0.023269 82.756
           0.023094 70.515 0.023269 82.756 0.999463 -16.90
5.16000000 0.033588 79.511 0.999167 -11.74 0.023184 70.439
           0.999167 -11.74 0.033465 77.908 0.023361 82.728
           0.023184 70.439 0.023361 82.728 0.999459 -16.96
5.18000000 0.033717 79.470 0.999160 -11.79 0.023274 70.363
           0.999160 -11.79 0.033593 77.861 0.023453 82.699
           0.023274 70.363 0.023453 82.699 0.999454 -17.03
5.20000000 0.033846 79.429 0.999154 -11.83 0.023364 70.287
           0.999154 -11.83 0.033720 77.814 0.023545 82.670
           0.023364 70.287 0.023545 82.670 0.999450 -17.10
5.22000000 0.033975 79.389 0.999147 -11.88 0.023454 70.211
           0.999147 -11.88 0.033848 77.768 0.023637 82.641
           0.023454 70.211 0.023637 82.641 0.999446 -17.16
5.24000000 0.034104 79.348 0.999141 -11.92 0.023544 70.135
           0.999141 -11.92 0.033976 77.721 0.023729 82.612
           0.023544 70.135 0.023729 82.612 0.999441 -17.23
5.26000000 0.034233 79.307 0.999134 -11.97 0.023634 70.059
           0.999134 -11.97 0.034103 77.674 0.023821 82.583
           0.023634 70.059 0.023821 82.583 0.999437 -17.30
5.28000000 0.034362 79.266 0.999128 -12.01 0.023724 69.983
           0.999128 -12.01 0.034231 77.627 0.023913 82.554
           0.023724 69.983 0.023913 82.554 0.999433 -17.36
5.30000000 0.034491 79.226 0.999121 -12.06 0.023814 69.907
           0.999121 -12.06 0.034358 77.580 0.024005 82.525
           0.023814 69.907 0.024005 82.525 0.999428 -17.43
5.32000000 0.034620 79.185 0.999115 -12.11 0.023903 69.831
           0.999115 -12.11 0.034486 77.534 0.024097 82.496
           0.023903 69.831 0.024097 82.496 0.999424 -17.49
5.34000000 0.034749 79.144 0.999108 -12.15 0.023993 69.755
           0.999108 -12.15 0.034613 77.487 0.024189 82.468
           0.023993 69.755 0.024189 82.468 0.999420 -17.56
5.36000000 0.034878 79.104 0.999101 -12.20 0.024083 69.679
           0.999101 -12.20 0.034741 77.440 0.024281 82.439
           0.024083 69.679 0.024281 82.439 0.999415 -17.63
5.38000000 0.035007 79.063 0.999095 -12.24 0.024173 69.603
           0.999095 -12.24 0.034868 77.393 0.024373 82.410
           0.024173 69.603 0.024373 82.410 0.999411 -17.69
5.40000000 0.035136 79.022 0.999088 -12.29 0.024263 69.527
           0.999088 -12.29 0.034995 77.346 0.024466 82.381
           0.024263 69.527 0.024466 82.381 0.999406 -17.76
5.42000000 0.035265 78.982 0.999081 -12.33 0.024353 69.450
           0.999081 -12.33 0.035123 77.299 0.024558 82.352
           0.024353 69.450 0.024558 82.352 0.999402 -17.83
5.44000000 0.035394 78.941 0.999074 -12.38 0.024443 69.374
           0.999074 -12.38 0.035250 77.253 0.024650 82.323
           0.024443 69.374 0.024650 82.323 0.999397 -17.89
5.46000000 0.035523 78.900 0.999068 -12.42 0.024533 69.298
           0.999068 -12.42 0.035377 77.206 0.024742 82.294
           0.024533 69.298 0.024742 82.294 0.999393 -17.96
5.48000000 0.035652 78.859 0.999061 -12.47 0.024623 69.222
           0.999061 -12.47 0.035505 77.159 0.024834 82.265
           0.024623 69.222 0.024834 82.265 0.999388 -18.02
5.50000000 0.035780 78.819 0.999054 -12.51 0.024713 69.146
           0.999054 -12.51 0.035632 77.112 0.024926 82.236
           0.024713 69.146 0.024926 82.236 0.999384 -18.09
5.52000000 0.035909 78.778 0.999047 -12.56 0.024803 69.070
           0.999047 -12.56 0.035759 77.065 0.025019 82.207
           0.024803 69.070 0.025019 82.207 0.999379 -18.16
5.54000000 0.036038 78.737 0.999040 -12.61 0.024893 68.994
           0.999040 -12.61 0.035886 77.019 0.025111 82.178
           0.024893 68.994 0.025111 82.178 0.999375 -18.22
5.56000000 0.036167 78.697 0.999033 -12.65 0.024982 68.918
           0.999033 -12.65 0.036014 76.972 0.025203 82.149
           0.024982 68.918 0.025203 82.149 0.999370 -18.29
5.58000000 0.036296 78.656 0.999027 -12.70 0.025072 68.842
           0.999027 -12.70 0.036141 76.925 0.025295 82.120
           0.025072 68.842 0.025295 82.120 0.999366 -18.36
5.60000000 0.036425 78.615 0.999020 -12.74 0.025162 68.766
           0.999020 -12.74 0.036268 76.878 0.025388 82.091
           0.025162 68.766 0.025388 82.091 0.999361 -18.42
5.62000000 0.036553 78.574 0.999013 -12.79 0.025252 68.690
           0.999013 -12.79 0.036395 76.831 0.025480 82.062
           0.025252 68.690 0.025480 82.062 0.999356 -18.49
5.64000000 0.036682 78.534 0.999006 -12.83 0.025342 68.614
           0.999006 -12.83 0.036522 76.784 0.025572 82.033
           0.025342 68.614 0.025572 82.033 0.999352 -18.55
!< P1 F=5.64 Eeff=(7.47587849 0.0) Z0=(59.356261 0.0) R=0.0 C=0.00433329 
!< P2 F=5.64 Eeff=(7.62768406 0.0) Z0=(57.1657445 0.0) R=0.0 C=0.00427574 
!< P3 F=5.64 Eeff=(7.39643197 0.0) Z0=(61.3765444 0.0) R=0.0 C=0.00441582 
5.66000000 0.036811 78.493 0.998999 -12.88 0.025432 68.538
           0.998999 -12.88 0.036649 76.738 0.025665 82.004
           0.025432 68.538 0.025665 82.004 0.999347 -18.62
5.68000000 0.036940 78.452 0.998992 -12.92 0.025522 68.462
           0.998992 -12.92 0.036776 76.691 0.025757 81.975
           0.025522 68.462 0.025757 81.975 0.999342 -18.69
5.70000000 0.037068 78.411 0.998984 -12.97 0.025612 68.385
           0.998984 -12.97 0.036903 76.644 0.025849 81.945
           0.025612 68.385 0.025849 81.945 0.999338 -18.75
5.72000000 0.037197 78.371 0.998977 -13.01 0.025702 68.309
           0.998977 -13.01 0.037030 76.597 0.025942 81.916
           0.025702 68.309 0.025942 81.916 0.999333 -18.82
5.74000000 0.037326 78.330 0.998970 -13.06 0.025792 68.233
           0.998970 -13.06 0.037157 76.550 0.026034 81.887
           0.025792 68.233 0.026034 81.887 0.999328 -18.89
5.76000000 0.037455 78.289 0.998963 -13.11 0.025882 68.157
           0.998963 -13.11 0.037284 76.504 0.026127 81.858
           0.025882 68.157 0.026127 81.858 0.999323 -18.95
5.78000000 0.037583 78.249 0.998956 -13.15 0.025972 68.081
           0.998956 -13.15 0.037411 76.457 0.026219 81.829
           0.025972 68.081 0.026219 81.829 0.999319 -19.02
5.80000000 0.037712 78.208 0.998949 -13.20 0.026061 68.005
           0.998949 -13.20 0.037538 76.410 0.026312 81.800
           0.026061 68.005 0.026312 81.800 0.999314 -19.09
5.82000000 0.037841 78.167 0.998942 -13.24 0.026151 67.929
           0.998942 -13.24 0.037665 76.363 0.026404 81.771
           0.026151 67.929 0.026404 81.771 0.999309 -19.15
5.84000000 0.037969 78.126 0.998934 -13.29 0.026241 67.853
           0.998934 -13.29 0.037791 76.316 0.026497 81.742
           0.026241 67.853 0.026497 81.742 0.999304 -19.22
5.86000000 0.038098 78.086 0.998927 -13.33 0.026331 67.777
           0.998927 -13.33 0.037918 76.270 0.026589 81.713
           0.026331 67.777 0.026589 81.713 0.999299 -19.28
5.88000000 0.038226 78.045 0.998920 -13.38 0.026421 67.701
           0.998920 -13.38 0.038045 76.223 0.026682 81.683
           0.026421 67.701 0.026682 81.683 0.999295 -19.35
5.90000000 0.038355 78.004 0.998912 -13.42 0.026511 67.624
           0.998912 -13.42 0.038172 76.176 0.026774 81.654
           0.026511 67.624 0.026774 81.654 0.999290 -19.42
5.92000000 0.038484 77.963 0.998905 -13.47 0.026601 67.548
           0.998905 -13.47 0.038298 76.129 0.026867 81.625
           0.026601 67.548 0.026867 81.625 0.999285 -19.48
5.94000000 0.038612 77.923 0.998898 -13.51 0.026691 67.472
           0.998898 -13.51 0.038425 76.082 0.026959 81.596
           0.026691 67.472 0.026959 81.596 0.999280 -19.55
5.96000000 0.038741 77.882 0.998890 -13.56 0.026781 67.396
           0.998890 -13.56 0.038552 76.036 0.027052 81.567
           0.026781 67.396 0.027052 81.567 0.999275 -19.62
5.98000000 0.038869 77.841 0.998883 -13.61 0.026871 67.320
           0.998883 -13.61 0.038678 75.989 0.027145 81.538
           0.026871 67.320 0.027145 81.538 0.999270 -19.68
6.00000000 0.038998 77.801 0.998876 -13.65 0.026961 67.244
           0.998876 -13.65 0.038805 75.942 0.027237 81.508
           0.026961 67.244 0.027237 81.508 0.999265 -19.75
6.02000000 0.039126 77.760 0.998868 -13.70 0.027051 67.168
           0.998868 -13.70 0.038932 75.895 0.027330 81.479
           0.027051 67.168 0.027330 81.479 0.999260 -19.82
6.04000000 0.039255 77.719 0.998861 -13.74 0.027140 67.092
           0.998861 -13.74 0.039058 75.848 0.027423 81.450
           0.027140 67.092 0.027423 81.450 0.999255 -19.88
6.06000000 0.039383 77.678 0.998853 -13.79 0.027230 67.015
           0.998853 -13.79 0.039185 75.802 0.027515 81.421
           0.027230 67.015 0.027515 81.421 0.999250 -19.95
6.08000000 0.039512 77.638 0.998846 -13.83 0.027320 66.939
           0.998846 -13.83 0.039311 75.755 0.027608 81.392
           0.027320 66.939 0.027608 81.392 0.999245 -20.02
6.10000000 0.039640 77.597 0.998838 -13.88 0.027410 66.863
           0.998838 -13.88 0.039438 75.708 0.027701 81.362
           0.027410 66.863 0.027701 81.362 0.999240 -20.08
6.12000000 0.039769 77.556 0.998831 -13.92 0.027500 66.787
           0.998831 -13.92 0.039564 75.661 0.027793 81.333
           0.027500 66.787 0.027793 81.333 0.999235 -20.15
6.14000000 0.039897 77.515 0.998823 -13.97 0.027590 66.711
           0.998823 -13.97 0.039691 75.614 0.027886 81.304
           0.027590 66.711 0.027886 81.304 0.999230 -20.21
6.16000000 0.040026 77.475 0.998815 -14.02 0.027680 66.635
           0.998815 -14.02 0.039817 75.568 0.027979 81.274
           0.027680 66.635 0.027979 81.274 0.999225 -20.28
6.18000000 0.040154 77.434 0.998808 -14.06 0.027770 66.558
           0.998808 -14.06 0.039943 75.521 0.028072 81.245
           0.027770 66.558 0.028072 81.245 0.999220 -20.35
6.20000000 0.040282 77.393 0.998800 -14.11 0.027860 66.482
           0.998800 -14.11 0.040070 75.474 0.028165 81.216
           0.027860 66.482 0.028165 81.216 0.999215 -20.41
6.22000000 0.040411 77.352 0.998792 -14.15 0.027950 66.406
           0.998792 -14.15 0.040196 75.427 0.028257 81.187
           0.027950 66.406 0.028257 81.187 0.999210 -20.48
6.24000000 0.040539 77.312 0.998785 -14.20 0.028040 66.330
           0.998785 -14.20 0.040322 75.380 0.028350 81.157
           0.028040 66.330 0.028350 81.157 0.999204 -20.55
6.26000000 0.040667 77.271 0.998777 -14.24 0.028130 66.254
           0.998777 -14.24 0.040449 75.334 0.028443 81.128
           0.028130 66.254 0.028443 81.128 0.999199 -20.61
6.28000000 0.040796 77.230 0.998769 -14.29 0.028220 66.178
           0.998769 -14.29 0.040575 75.287 0.028536 81.099
           0.028220 66.178 0.028536 81.099 0.999194 -20.68
6.30000000 0.040924 77.189 0.998761 -14.33 0.028309 66.101
           0.998761 -14.33 0.040701 75.240 0.028629 81.069
           0.028309 66.101 0.028629 81.069 0.999189 -20.75
6.32000000 0.041052 77.149 0.998753 -14.38 0.028399 66.025
           0.998753 -14.38 0.040827 75.193 0.028722 81.040
           0.028399 66.025 0.028722 81.040 0.999184 -20.81
6.34000000 0.041181 77.108 0.998746 -14.42 0.028489 65.949
           0.998746 -14.42 0.040953 75.146 0.028815 81.011
           0.028489 65.949 0.028815 81.011 0.999178 -20.88
6.36000000 0.041309 77.067 0.998738 -14.47 0.028579 65.873
           0.998738 -14.47 0.041079 75.100 0.028908 80.981
           0.028579 65.873 0.028908 80.981 0.999173 -20.95
6.38000000 0.041437 77.026 0.998730 -14.52 0.028669 65.797
           0.998730 -14.52 0.041206 75.053 0.029001 80.952
           0.028669 65.797 0.029001 80.952 0.999168 -21.01
6.40000000 0.041565 76.986 0.998722 -14.56 0.028759 65.721
           0.998722 -14.56 0.041332 75.006 0.029094 80.923
           0.028759 65.721 0.029094 80.923 0.999163 -21.08
6.42000000 0.041694 76.945 0.998714 -14.61 0.028849 65.644
           0.998714 -14.61 0.041458 74.959 0.029187 80.893
           0.028849 65.644 0.029187 80.893 0.999157 -21.15
6.44000000 0.041822 76.904 0.998706 -14.65 0.028939 65.568
           0.998706 -14.65 0.041584 74.912 0.029280 80.864
           0.028939 65.568 0.029280 80.864 0.999152 -21.21
6.46000000 0.041950 76.863 0.998698 -14.70 0.029029 65.492
           0.998698 -14.70 0.041710 74.866 0.029373 80.834
           0.029029 65.492 0.029373 80.834 0.999147 -21.28
6.48000000 0.042078 76.823 0.998690 -14.74 0.029119 65.416
           0.998690 -14.74 0.041836 74.819 0.029466 80.805
           0.029119 65.416 0.029466 80.805 0.999141 -21.35
6.50000000 0.042206 76.782 0.998682 -14.79 0.029209 65.340
           0.998682 -14.79 0.041961 74.772 0.029559 80.776
           0.029209 65.340 0.029559 80.776 0.999136 -21.41
6.52000000 0.042334 76.741 0.998674 -14.83 0.029299 65.263
           0.998674 -14.83 0.042087 74.725 0.029652 80.746
           0.029299 65.263 0.029652 80.746 0.999131 -21.48
6.54000000 0.042462 76.700 0.998666 -14.88 0.029389 65.187
           0.998666 -14.88 0.042213 74.678 0.029745 80.717
           0.029389 65.187 0.029745 80.717 0.999125 -21.55
6.56000000 0.042591 76.659 0.998658 -14.92 0.029479 65.111
           0.998658 -14.92 0.042339 74.632 0.029839 80.687
           0.029479 65.111 0.029839 80.687 0.999120 -21.61
6.58000000 0.042719 76.619 0.998650 -14.97 0.029568 65.035
           0.998650 -14.97 0.042465 74.585 0.029932 80.658
           0.029568 65.035 0.029932 80.658 0.999114 -21.68
6.60000000 0.042847 76.578 0.998641 -15.02 0.029658 64.958
           0.998641 -15.02 0.042591 74.538 0.030025 80.628
           0.029658 64.958 0.030025 80.628 0.999109 -21.75
6.62000000 0.042975 76.537 0.998633 -15.06 0.029748 64.882
           0.998633 -15.06 0.042716 74.491 0.030118 80.599
           0.029748 64.882 0.030118 80.599 0.999103 -21.81
6.64000000 0.043103 76.496 0.998625 -15.11 0.029838 64.806
           0.998625 -15.11 0.042842 74.444 0.030211 80.569
           0.029838 64.806 0.030211 80.569 0.999098 -21.88
6.66000000 0.043231 76.456 0.998617 -15.15 0.029928 64.730
           0.998617 -15.15 0.042968 74.398 0.030305 80.540
           0.029928 64.730 0.030305 80.540 0.999092 -21.95
6.68000000 0.043359 76.415 0.998609 -15.20 0.030018 64.654
           0.998609 -15.20 0.043093 74.351 0.030398 80.510
           0.030018 64.654 0.030398 80.510 0.999087 -22.01
6.70000000 0.043487 76.374 0.998600 -15.24 0.030108 64.577
           0.998600 -15.24 0.043219 74.304 0.030491 80.481
           0.030108 64.577 0.030491 80.481 0.999081 -22.08
6.72000000 0.043615 76.333 0.998592 -15.29 0.030198 64.501
           0.998592 -15.29 0.043345 74.257 0.030585 80.451
           0.030198 64.501 0.030585 80.451 0.999076 -22.15
6.74000000 0.043743 76.292 0.998584 -15.33 0.030288 64.425
           0.998584 -15.33 0.043470 74.211 0.030678 80.422
           0.030288 64.425 0.030678 80.422 0.999070 -22.21
6.76000000 0.043871 76.252 0.998575 -15.38 0.030378 64.349
           0.998575 -15.38 0.043596 74.164 0.030771 80.392
           0.030378 64.349 0.030771 80.392 0.999065 -22.28
6.78000000 0.043999 76.211 0.998567 -15.42 0.030468 64.272
           0.998567 -15.42 0.043721 74.117 0.030865 80.363
           0.030468 64.272 0.030865 80.363 0.999059 -22.35
6.80000000 0.044127 76.170 0.998559 -15.47 0.030558 64.196
           0.998559 -15.47 0.043847 74.070 0.030958 80.333
           0.030558 64.196 0.030958 80.333 0.999053 -22.41
6.82000000 0.044254 76.129 0.998550 -15.51 0.030648 64.120
           0.998550 -15.51 0.043972 74.023 0.031051 80.303
           0.030648 64.120 0.031051 80.303 0.999048 -22.48
6.84000000 0.044382 76.089 0.998542 -15.56 0.030738 64.044
           0.998542 -15.56 0.044097 73.977 0.031145 80.274
           0.030738 64.044 0.031145 80.274 0.999042 -22.55
6.86000000 0.044510 76.048 0.998533 -15.61 0.030828 63.967
           0.998533 -15.61 0.044223 73.930 0.031238 80.244
           0.030828 63.967 0.031238 80.244 0.999036 -22.61
6.88000000 0.044638 76.007 0.998525 -15.65 0.030917 63.891
           0.998525 -15.65 0.044348 73.883 0.031332 80.215
           0.030917 63.891 0.031332 80.215 0.999031 -22.68
6.90000000 0.044766 75.966 0.998516 -15.70 0.031007 63.815
           0.998516 -15.70 0.044473 73.836 0.031425 80.185
           0.031007 63.815 0.031425 80.185 0.999025 -22.75
6.92000000 0.044894 75.925 0.998508 -15.74 0.031097 63.738
           0.998508 -15.74 0.044599 73.789 0.031519 80.155
           0.031097 63.738 0.031519 80.155 0.999019 -22.81
6.94000000 0.045022 75.885 0.998499 -15.79 0.031187 63.662
           0.998499 -15.79 0.044724 73.743 0.031612 80.126
           0.031187 63.662 0.031612 80.126 0.999013 -22.88
6.96000000 0.045149 75.844 0.998491 -15.83 0.031277 63.586
           0.998491 -15.83 0.044849 73.696 0.031706 80.096
           0.031277 63.586 0.031706 80.096 0.999008 -22.95
6.98000000 0.045277 75.803 0.998482 -15.88 0.031367 63.510
           0.998482 -15.88 0.044974 73.649 0.031800 80.066
           0.031367 63.510 0.031800 80.066 0.999002 -23.01
7.00000000 0.045405 75.762 0.998473 -15.92 0.031457 63.433
           0.998473 -15.92 0.045100 73.602 0.031893 80.037
           0.031457 63.433 0.031893 80.037 0.998996 -23.08
7.02000000 0.045533 75.721 0.998465 -15.97 0.031547 63.357
           0.998465 -15.97 0.045225 73.555 0.031987 80.007
           0.031547 63.357 0.031987 80.007 0.998990 -23.15
7.04000000 0.045660 75.681 0.998456 -16.01 0.031637 63.281
           0.998456 -16.01 0.045350 73.509 0.032080 79.977
           0.031637 63.281 0.032080 79.977 0.998984 -23.21
7.06000000 0.045788 75.640 0.998447 -16.06 0.031727 63.204
           0.998447 -16.06 0.045475 73.462 0.032174 79.948
           0.031727 63.204 0.032174 79.948 0.998979 -23.28
7.08000000 0.045916 75.599 0.998439 -16.11 0.031817 63.128
           0.998439 -16.11 0.045600 73.415 0.032268 79.918
           0.031817 63.128 0.032268 79.918 0.998973 -23.35
7.10000000 0.046043 75.558 0.998430 -16.15 0.031907 63.052
           0.998430 -16.15 0.045725 73.368 0.032361 79.888
           0.031907 63.052 0.032361 79.888 0.998967 -23.41
!< P1 F=7.1 Eeff=(7.47591767 0.0) Z0=(59.3560544 0.0) R=0.0 C=0.00433329 
!< P2 F=7.1 Eeff=(7.62772038 0.0) Z0=(57.1655529 0.0) R=0.0 C=0.00427573 
!< P3 F=7.1 Eeff=(7.39646444 0.0) Z0=(61.3762857 0.0) R=0.0 C=0.00441582 
7.12000000 0.046171 75.517 0.998421 -16.20 0.031997 62.976
           0.998421 -16.20 0.045850 73.322 0.032455 79.859
           0.031997 62.976 0.032455 79.859 0.998961 -23.48
7.14000000 0.046299 75.477 0.998412 -16.24 0.032087 62.899
           0.998412 -16.24 0.045975 73.275 0.032549 79.829
           0.032087 62.899 0.032549 79.829 0.998955 -23.55
7.16000000 0.046426 75.436 0.998403 -16.29 0.032177 62.823
           0.998403 -16.29 0.046100 73.228 0.032643 79.799
           0.032177 62.823 0.032643 79.799 0.998949 -23.61
7.18000000 0.046554 75.395 0.998395 -16.33 0.032267 62.747
           0.998395 -16.33 0.046224 73.181 0.032736 79.769
           0.032267 62.747 0.032736 79.769 0.998943 -23.68
7.20000000 0.046681 75.354 0.998386 -16.38 0.032356 62.670
           0.998386 -16.38 0.046349 73.135 0.032830 79.740
           0.032356 62.670 0.032830 79.740 0.998937 -23.75
7.22000000 0.046809 75.313 0.998377 -16.42 0.032446 62.594
           0.998377 -16.42 0.046474 73.088 0.032924 79.710
           0.032446 62.594 0.032924 79.710 0.998931 -23.81
7.24000000 0.046936 75.273 0.998368 -16.47 0.032536 62.518
           0.998368 -16.47 0.046599 73.041 0.033018 79.680
           0.032536 62.518 0.033018 79.680 0.998925 -23.88