! Sonnet Data File
! From: em Version : 15.52
! From Project: CPW_gap_coupler_3port_1um_FL_TS_6um
! Data is De-embedded 
! Data File Written: 08/14/2018 17:24:40
!< HDATE 08/14/2018 17:19:51
!< MDATE 08/14/2018 17:19:51
!< PARAMS
!< gap = 2.0
!< cpwS = 5.0
!< cpwS1 = 5.0
!< feedW = 12.0
!< feedS1 = 5.0
!< cond_length = 144.0
!< inner_length = 126.0
!< hangerW = 12.0000175
!< open_gap = 22.0
!< coupler_length = 150.0
!< END PARAMS
# GHZ S MA R 50.00000
4.00000000 0.022374 81.577 0.999740 -8.938 0.004486 86.089
           0.999740 -8.938 0.022375 80.599 0.004479 82.044
           0.004486 86.089 0.004479 82.044 0.999980 -4.209
!< P1 F=4.0 Eeff=(7.47584511 0.0) Z0=(59.3564362 0.0) R=0.0 C=0.0043333 
!< P2 F=4.0 Eeff=(7.6276531 0.0) Z0=(57.165907 0.0) R=0.0 C=0.00427574 
!< P3 F=4.0 Eeff=(7.40295854 0.0) Z0=(61.4162907 0.0) R=0.0 C=0.00441629 
4.02000000 0.022485 81.535 0.999737 -8.982 0.004508 86.070
           0.999737 -8.982 0.022486 80.552 0.004502 82.004
           0.004508 86.070 0.004502 82.004 0.999980 -4.230
4.04000000 0.022596 81.493 0.999734 -9.027 0.004531 86.050
           0.999734 -9.027 0.022597 80.505 0.004524 81.965
           0.004531 86.050 0.004524 81.965 0.999980 -4.251
4.06000000 0.022706 81.451 0.999732 -9.072 0.004553 86.030
           0.999732 -9.072 0.022708 80.458 0.004547 81.925
           0.004553 86.030 0.004547 81.925 0.999979 -4.272
4.08000000 0.022817 81.409 0.999729 -9.116 0.004576 86.011
           0.999729 -9.116 0.022819 80.411 0.004569 81.885
           0.004576 86.011 0.004569 81.885 0.999979 -4.293
4.10000000 0.022928 81.366 0.999727 -9.161 0.004598 85.991
           0.999727 -9.161 0.022929 80.364 0.004592 81.845
           0.004598 85.991 0.004592 81.845 0.999979 -4.314
4.12000000 0.023039 81.324 0.999724 -9.206 0.004621 85.971
           0.999724 -9.206 0.023040 80.317 0.004614 81.806
           0.004621 85.971 0.004614 81.806 0.999979 -4.335
4.14000000 0.023150 81.282 0.999721 -9.250 0.004643 85.952
           0.999721 -9.250 0.023151 80.270 0.004636 81.766
           0.004643 85.952 0.004636 81.766 0.999978 -4.356
4.16000000 0.023261 81.240 0.999719 -9.295 0.004666 85.932
           0.999719 -9.295 0.023262 80.223 0.004659 81.726
           0.004666 85.932 0.004659 81.726 0.999978 -4.377
4.18000000 0.023371 81.198 0.999716 -9.340 0.004688 85.913
           0.999716 -9.340 0.023373 80.176 0.004681 81.686
           0.004688 85.913 0.004681 81.686 0.999978 -4.398
4.20000000 0.023482 81.156 0.999713 -9.384 0.004711 85.893
           0.999713 -9.384 0.023483 80.129 0.004704 81.646
           0.004711 85.893 0.004704 81.646 0.999978 -4.419
4.22000000 0.023593 81.114 0.999710 -9.429 0.004733 85.873
           0.999710 -9.429 0.023594 80.082 0.004726 81.607
           0.004733 85.873 0.004726 81.607 0.999978 -4.440
4.24000000 0.023704 81.072 0.999708 -9.474 0.004756 85.854
           0.999708 -9.474 0.023705 80.035 0.004748 81.567
           0.004756 85.854 0.004748 81.567 0.999977 -4.461
4.26000000 0.023814 81.030 0.999705 -9.518 0.004778 85.834
           0.999705 -9.518 0.023816 79.988 0.004771 81.527
           0.004778 85.834 0.004771 81.527 0.999977 -4.482
4.28000000 0.023925 80.988 0.999702 -9.563 0.004801 85.814
           0.999702 -9.563 0.023926 79.941 0.004793 81.487
           0.004801 85.814 0.004793 81.487 0.999977 -4.503
4.30000000 0.024036 80.946 0.999699 -9.608 0.004823 85.795
           0.999699 -9.608 0.024037 79.894 0.004816 81.448
           0.004823 85.795 0.004816 81.448 0.999977 -4.524
4.32000000 0.024146 80.903 0.999697 -9.652 0.004846 85.775
           0.999697 -9.652 0.024148 79.847 0.004838 81.408
           0.004846 85.775 0.004838 81.408 0.999977 -4.545
4.34000000 0.024257 80.861 0.999694 -9.697 0.004868 85.755
           0.999694 -9.697 0.024259 79.800 0.004860 81.368
           0.004868 85.755 0.004860 81.368 0.999976 -4.566
4.36000000 0.024368 80.819 0.999691 -9.742 0.004891 85.736
           0.999691 -9.742 0.024369 79.753 0.004883 81.328
           0.004891 85.736 0.004883 81.328 0.999976 -4.587
4.38000000 0.024478 80.777 0.999688 -9.786 0.004913 85.716
           0.999688 -9.786 0.024480 79.706 0.004905 81.289
           0.004913 85.716 0.004905 81.289 0.999976 -4.609
4.40000000 0.024589 80.735 0.999685 -9.831 0.004936 85.696
           0.999685 -9.831 0.024590 79.659 0.004928 81.249
           0.004936 85.696 0.004928 81.249 0.999976 -4.630
4.42000000 0.024700 80.693 0.999683 -9.876 0.004959 85.677
           0.999683 -9.876 0.024701 79.612 0.004950 81.209
           0.004959 85.677 0.004950 81.209 0.999975 -4.651
4.44000000 0.024810 80.651 0.999680 -9.920 0.004981 85.657
           0.999680 -9.920 0.024812 79.565 0.004973 81.169
           0.004981 85.657 0.004973 81.169 0.999975 -4.672
4.46000000 0.024921 80.609 0.999677 -9.965 0.005004 85.637
           0.999677 -9.965 0.024922 79.518 0.004995 81.129
           0.005004 85.637 0.004995 81.129 0.999975 -4.693
4.48000000 0.025031 80.567 0.999674 -10.01 0.005026 85.618
           0.999674 -10.01 0.025033 79.471 0.005017 81.090
           0.005026 85.618 0.005017 81.090 0.999975 -4.714
4.50000000 0.025142 80.525 0.999671 -10.05 0.005049 85.598
           0.999671 -10.05 0.025143 79.424 0.005040 81.050
           0.005049 85.598 0.005040 81.050 0.999975 -4.735
4.52000000 0.025252 80.483 0.999668 -10.10 0.005071 85.578
           0.999668 -10.10 0.025254 79.377 0.005062 81.010
           0.005071 85.578 0.005062 81.010 0.999974 -4.756
4.54000000 0.025363 80.441 0.999665 -10.14 0.005094 85.559
           0.999665 -10.14 0.025364 79.330 0.005085 80.970
           0.005094 85.559 0.005085 80.970 0.999974 -4.777
4.56000000 0.025473 80.399 0.999662 -10.19 0.005116 85.539
           0.999662 -10.19 0.025475 79.283 0.005107 80.931
           0.005116 85.539 0.005107 80.931 0.999974 -4.798
4.58000000 0.025584 80.356 0.999659 -10.23 0.005139 85.519
           0.999659 -10.23 0.025585 79.236 0.005130 80.891
           0.005139 85.519 0.005130 80.891 0.999974 -4.819
4.60000000 0.025694 80.314 0.999656 -10.28 0.005161 85.500
           0.999656 -10.28 0.025696 79.189 0.005152 80.851
           0.005161 85.500 0.005152 80.851 0.999973 -4.840
4.62000000 0.025804 80.272 0.999654 -10.32 0.005184 85.480
           0.999654 -10.32 0.025806 79.142 0.005174 80.811
           0.005184 85.480 0.005174 80.811 0.999973 -4.861
4.64000000 0.025915 80.230 0.999651 -10.37 0.005206 85.460
           0.999651 -10.37 0.025917 79.095 0.005197 80.771
           0.005206 85.460 0.005197 80.771 0.999973 -4.882
4.66000000 0.026025 80.188 0.999648 -10.41 0.005229 85.441
           0.999648 -10.41 0.026027 79.048 0.005219 80.732
           0.005229 85.441 0.005219 80.732 0.999973 -4.903
4.68000000 0.026136 80.146 0.999645 -10.46 0.005252 85.421
           0.999645 -10.46 0.026137 79.001 0.005242 80.692
           0.005252 85.421 0.005242 80.692 0.999972 -4.924
4.70000000 0.026246 80.104 0.999642 -10.50 0.005274 85.401
           0.999642 -10.50 0.026248 78.954 0.005264 80.652
           0.005274 85.401 0.005264 80.652 0.999972 -4.945
4.72000000 0.026356 80.062 0.999639 -10.55 0.005297 85.382
           0.999639 -10.55 0.026358 78.907 0.005286 80.612
           0.005297 85.382 0.005286 80.612 0.999972 -4.967
4.74000000 0.026467 80.020 0.999636 -10.59 0.005319 85.362
           0.999636 -10.59 0.026469 78.860 0.005309 80.573
           0.005319 85.362 0.005309 80.573 0.999972 -4.988
4.76000000 0.026577 79.978 0.999632 -10.64 0.005342 85.342
           0.999632 -10.64 0.026579 78.813 0.005331 80.533
           0.005342 85.342 0.005331 80.533 0.999972 -5.009
4.78000000 0.026687 79.936 0.999629 -10.68 0.005364 85.323
           0.999629 -10.68 0.026689 78.766 0.005354 80.493
           0.005364 85.323 0.005354 80.493 0.999971 -5.030
4.80000000 0.026797 79.894 0.999626 -10.72 0.005387 85.303
           0.999626 -10.72 0.026799 78.719 0.005376 80.453
           0.005387 85.303 0.005376 80.453 0.999971 -5.051
4.82000000 0.026908 79.852 0.999623 -10.77 0.005409 85.283
           0.999623 -10.77 0.026910 78.672 0.005399 80.414
           0.005409 85.283 0.005399 80.414 0.999971 -5.072
4.84000000 0.027018 79.810 0.999620 -10.81 0.005432 85.264
           0.999620 -10.81 0.027020 78.625 0.005421 80.374
           0.005432 85.264 0.005421 80.374 0.999971 -5.093
4.86000000 0.027128 79.768 0.999617 -10.86 0.005455 85.244
           0.999617 -10.86 0.027130 78.578 0.005443 80.334
           0.005455 85.244 0.005443 80.334 0.999970 -5.114
4.88000000 0.027238 79.726 0.999614 -10.90 0.005477 85.224
           0.999614 -10.90 0.027240 78.531 0.005466 80.294
           0.005477 85.224 0.005466 80.294 0.999970 -5.135
!< P1 F=4.88 Eeff=(7.47586163 0.0) Z0=(59.3563496 0.0) R=0.0 C=0.0043333 
!< P2 F=4.88 Eeff=(7.62766841 0.0) Z0=(57.1658267 0.0) R=0.0 C=0.00427574 
!< P3 F=4.88 Eeff=(7.40297456 0.0) Z0=(61.4161975 0.0) R=0.0 C=0.00441629 
4.90000000 0.027348 79.684 0.999611 -10.95 0.005500 85.205
           0.999611 -10.95 0.027351 78.484 0.005488 80.254
           0.005500 85.205 0.005488 80.254 0.999970 -5.156
4.92000000 0.027459 79.642 0.999608 -10.99 0.005522 85.185
           0.999608 -10.99 0.027461 78.437 0.005511 80.215
           0.005522 85.185 0.005511 80.215 0.999970 -5.177
4.94000000 0.027569 79.599 0.999605 -11.04 0.005545 85.165
           0.999605 -11.04 0.027571 78.390 0.005533 80.175
           0.005545 85.165 0.005533 80.175 0.999969 -5.198
4.96000000 0.027679 79.557 0.999601 -11.08 0.005567 85.145
           0.999601 -11.08 0.027681 78.343 0.005556 80.135
           0.005567 85.145 0.005556 80.135 0.999969 -5.219
4.98000000 0.027789 79.515 0.999598 -11.13 0.005590 85.126
           0.999598 -11.13 0.027791 78.296 0.005578 80.095
           0.005590 85.126 0.005578 80.095 0.999969 -5.240
5.00000000 0.027899 79.473 0.999595 -11.17 0.005613 85.106
           0.999595 -11.17 0.027901 78.249 0.005600 80.056
           0.005613 85.106 0.005600 80.056 0.999969 -5.261
5.02000000 0.028009 79.431 0.999592 -11.22 0.005635 85.086
           0.999592 -11.22 0.028012 78.202 0.005623 80.016
           0.005635 85.086 0.005623 80.016 0.999968 -5.282
5.04000000 0.028119 79.389 0.999589 -11.26 0.005658 85.067
           0.999589 -11.26 0.028122 78.155 0.005645 79.976
           0.005658 85.067 0.005645 79.976 0.999968 -5.303
5.06000000 0.028229 79.347 0.999585 -11.30 0.005680 85.047
           0.999585 -11.30 0.028232 78.108 0.005668 79.936
           0.005680 85.047 0.005668 79.936 0.999968 -5.325
5.08000000 0.028339 79.305 0.999582 -11.35 0.005703 85.027
           0.999582 -11.35 0.028342 78.061 0.005690 79.897
           0.005703 85.027 0.005690 79.897 0.999968 -5.346
5.10000000 0.028449 79.263 0.999579 -11.39 0.005725 85.007
           0.999579 -11.39 0.028452 78.014 0.005713 79.857
           0.005725 85.007 0.005713 79.857 0.999967 -5.367
5.12000000 0.028559 79.221 0.999576 -11.44 0.005748 84.988
           0.999576 -11.44 0.028562 77.967 0.005735 79.817
           0.005748 84.988 0.005735 79.817 0.999967 -5.388
5.14000000 0.028669 79.179 0.999572 -11.48 0.005771 84.968
           0.999572 -11.48 0.028672 77.920 0.005757 79.777
           0.005771 84.968 0.005757 79.777 0.999967 -5.409
5.16000000 0.028779 79.137 0.999569 -11.53 0.005793 84.948
           0.999569 -11.53 0.028782 77.873 0.005780 79.737
           0.005793 84.948 0.005780 79.737 0.999967 -5.430
5.18000000 0.028889 79.095 0.999566 -11.57 0.005816 84.929
           0.999566 -11.57 0.028892 77.826 0.005802 79.698
           0.005816 84.929 0.005802 79.698 0.999966 -5.451
5.20000000 0.028999 79.053 0.999562 -11.62 0.005838 84.909
           0.999562 -11.62 0.029002 77.779 0.005825 79.658
           0.005838 84.909 0.005825 79.658 0.999966 -5.472
5.22000000 0.029109 79.011 0.999559 -11.66 0.005861 84.889
           0.999559 -11.66 0.029111 77.732 0.005847 79.618
           0.005861 84.889 0.005847 79.618 0.999966 -5.493
5.24000000 0.029218 78.969 0.999556 -11.71 0.005883 84.870
           0.999556 -11.71 0.029221 77.685 0.005870 79.578
           0.005883 84.870 0.005870 79.578 0.999965 -5.514
5.26000000 0.029328 78.927 0.999552 -11.75 0.005906 84.850
           0.999552 -11.75 0.029331 77.638 0.005892 79.539
           0.005906 84.850 0.005892 79.539 0.999965 -5.535
5.28000000 0.029438 78.885 0.999549 -11.80 0.005929 84.830
           0.999549 -11.80 0.029441 77.591 0.005914 79.499
           0.005929 84.830 0.005914 79.499 0.999965 -5.556
5.30000000 0.029548 78.843 0.999546 -11.84 0.005951 84.810
           0.999546 -11.84 0.029551 77.544 0.005937 79.459
           0.005951 84.810 0.005937 79.459 0.999965 -5.577
5.32000000 0.029658 78.801 0.999542 -11.89 0.005974 84.791
           0.999542 -11.89 0.029661 77.497 0.005959 79.419
           0.005974 84.791 0.005959 79.419 0.999964 -5.598
5.34000000 0.029767 78.759 0.999539 -11.93 0.005996 84.771
           0.999539 -11.93 0.029771 77.450 0.005982 79.380
           0.005996 84.771 0.005982 79.380 0.999964 -5.619
5.36000000 0.029877 78.716 0.999536 -11.97 0.006019 84.751
           0.999536 -11.97 0.029880 77.403 0.006004 79.340
           0.006019 84.751 0.006004 79.340 0.999964 -5.641
5.38000000 0.029987 78.674 0.999532 -12.02 0.006042 84.731
           0.999532 -12.02 0.029990 77.356 0.006027 79.300
           0.006042 84.731 0.006027 79.300 0.999964 -5.662
5.40000000 0.030097 78.632 0.999529 -12.06 0.006064 84.712
           0.999529 -12.06 0.030100 77.309 0.006049 79.260
           0.006064 84.712 0.006049 79.260 0.999963 -5.683
5.42000000 0.030206 78.590 0.999525 -12.11 0.006087 84.692
           0.999525 -12.11 0.030210 77.262 0.006071 79.221
           0.006087 84.692 0.006071 79.221 0.999963 -5.704
5.44000000 0.030316 78.548 0.999522 -12.15 0.006109 84.672
           0.999522 -12.15 0.030319 77.215 0.006094 79.181
           0.006109 84.672 0.006094 79.181 0.999963 -5.725
5.46000000 0.030426 78.506 0.999518 -12.20 0.006132 84.653
           0.999518 -12.20 0.030429 77.168 0.006116 79.141
           0.006132 84.653 0.006116 79.141 0.999962 -5.746
5.48000000 0.030535 78.464 0.999515 -12.24 0.006155 84.633
           0.999515 -12.24 0.030539 77.121 0.006139 79.101
           0.006155 84.633 0.006139 79.101 0.999962 -5.767
5.50000000 0.030645 78.422 0.999511 -12.29 0.006177 84.613
           0.999511 -12.29 0.030648 77.074 0.006161 79.061
           0.006177 84.613 0.006161 79.061 0.999962 -5.788
5.52000000 0.030754 78.380 0.999508 -12.33 0.006200 84.593
           0.999508 -12.33 0.030758 77.027 0.006184 79.022
           0.006200 84.593 0.006184 79.022 0.999962 -5.809
5.54000000 0.030864 78.338 0.999504 -12.38 0.006222 84.574
           0.999504 -12.38 0.030868 76.980 0.006206 78.982
           0.006222 84.574 0.006206 78.982 0.999961 -5.830
5.56000000 0.030974 78.296 0.999501 -12.42 0.006245 84.554
           0.999501 -12.42 0.030977 76.933 0.006228 78.942
           0.006245 84.554 0.006228 78.942 0.999961 -5.851
5.58000000 0.031083 78.254 0.999497 -12.47 0.006268 84.534
           0.999497 -12.47 0.031087 76.886 0.006251 78.902
           0.006268 84.534 0.006251 78.902 0.999961 -5.872
5.60000000 0.031193 78.212 0.999494 -12.51 0.006290 84.514
           0.999494 -12.51 0.031196 76.839 0.006273 78.863
           0.006290 84.514 0.006273 78.863 0.999961 -5.893
5.62000000 0.031302 78.170 0.999490 -12.56 0.006313 84.495
           0.999490 -12.56 0.031306 76.792 0.006296 78.823
           0.006313 84.495 0.006296 78.823 0.999960 -5.914
5.64000000 0.031412 78.128 0.999487 -12.60 0.006336 84.475
           0.999487 -12.60 0.031415 76.745 0.006318 78.783
           0.006336 84.475 0.006318 78.783 0.999960 -5.935
5.66000000 0.031521 78.086 0.999483 -12.64 0.006358 84.455
           0.999483 -12.64 0.031525 76.698 0.006341 78.743
           0.006358 84.455 0.006341 78.743 0.999960 -5.957
5.68000000 0.031631 78.044 0.999479 -12.69 0.006381 84.435
           0.999479 -12.69 0.031634 76.651 0.006363 78.704
           0.006381 84.435 0.006363 78.704 0.999959 -5.978
5.70000000 0.031740 78.002 0.999476 -12.73 0.006403 84.416
           0.999476 -12.73 0.031744 76.604 0.006385 78.664
           0.006403 84.416 0.006385 78.664 0.999959 -5.999
5.72000000 0.031849 77.960 0.999472 -12.78 0.006426 84.396
           0.999472 -12.78 0.031853 76.557 0.006408 78.624
           0.006426 84.396 0.006408 78.624 0.999959 -6.020
5.74000000 0.031959 77.918 0.999468 -12.82 0.006449 84.376
           0.999468 -12.82 0.031963 76.510 0.006430 78.584
           0.006449 84.376 0.006430 78.584 0.999959 -6.041
5.76000000 0.032068 77.875 0.999465 -12.87 0.006471 84.356
           0.999465 -12.87 0.032072 76.463 0.006453 78.544
           0.006471 84.356 0.006453 78.544 0.999958 -6.062
5.78000000 0.032177 77.833 0.999461 -12.91 0.006494 84.337
           0.999461 -12.91 0.032181 76.416 0.006475 78.505
           0.006494 84.337 0.006475 78.505 0.999958 -6.083
5.80000000 0.032287 77.791 0.999457 -12.96 0.006517 84.317
           0.999457 -12.96 0.032291 76.369 0.006498 78.465
           0.006517 84.317 0.006498 78.465 0.999958 -6.104
5.82000000 0.032396 77.749 0.999454 -13.00 0.006539 84.297
           0.999454 -13.00 0.032400 76.323 0.006520 78.425
           0.006539 84.297 0.006520 78.425 0.999957 -6.125
5.84000000 0.032505 77.707 0.999450 -13.05 0.006562 84.277
           0.999450 -13.05 0.032509 76.276 0.006543 78.385
           0.006562 84.277 0.006543 78.385 0.999957 -6.146
5.86000000 0.032615 77.665 0.999446 -13.09 0.006584 84.258
           0.999446 -13.09 0.032619 76.229 0.006565 78.346
           0.006584 84.258 0.006565 78.346 0.999957 -6.167
5.88000000 0.032724 77.623 0.999443 -13.14 0.006607 84.238
           0.999443 -13.14 0.032728 76.182 0.006587 78.306
           0.006607 84.238 0.006587 78.306 0.999956 -6.188
5.90000000 0.032833 77.581 0.999439 -13.18 0.006630 84.218
           0.999439 -13.18 0.032837 76.135 0.006610 78.266
           0.006630 84.218 0.006610 78.266 0.999956 -6.209
5.92000000 0.032942 77.539 0.999435 -13.23 0.006652 84.198
           0.999435 -13.23 0.032946 76.088 0.006632 78.226
           0.006652 84.198 0.006632 78.226 0.999956 -6.230
5.94000000 0.033051 77.497 0.999431 -13.27 0.006675 84.178
           0.999431 -13.27 0.033056 76.041 0.006655 78.187
           0.006675 84.178 0.006655 78.187 0.999956 -6.251
5.96000000 0.033161 77.455 0.999428 -13.31 0.006698 84.159
           0.999428 -13.31 0.033165 75.994 0.006677 78.147
           0.006698 84.159 0.006677 78.147 0.999955 -6.273
5.98000000 0.033270 77.413 0.999424 -13.36 0.006720 84.139
           0.999424 -13.36 0.033274 75.947 0.006700 78.107
           0.006720 84.139 0.006700 78.107 0.999955 -6.294
6.00000000 0.033379 77.371 0.999420 -13.40 0.006743 84.119
           0.999420 -13.40 0.033383 75.900 0.006722 78.067
           0.006743 84.119 0.006722 78.067 0.999955 -6.315
!< P1 F=6.0 Eeff=(7.47588731 0.0) Z0=(59.3562144 0.0) R=0.0 C=0.00433329 
!< P2 F=6.0 Eeff=(7.62769223 0.0) Z0=(57.1657013 0.0) R=0.0 C=0.00427574 
!< P3 F=6.0 Eeff=(7.40299914 0.0) Z0=(61.4160504 0.0) R=0.0 C=0.00441629 
6.02000000 0.033488 77.329 0.999416 -13.45 0.006766 84.099
           0.999416 -13.45 0.033492 75.853 0.006745 78.027
           0.006766 84.099 0.006745 78.027 0.999954 -6.336
6.04000000 0.033597 77.287 0.999412 -13.49 0.006788 84.080
           0.999412 -13.49 0.033601 75.806 0.006767 77.988
           0.006788 84.080 0.006767 77.988 0.999954 -6.357
6.06000000 0.033706 77.245 0.999409 -13.54 0.006811 84.060
           0.999409 -13.54 0.033710 75.759 0.006789 77.948
           0.006811 84.060 0.006789 77.948 0.999954 -6.378
6.08000000 0.033815 77.203 0.999405 -13.58 0.006834 84.040
           0.999405 -13.58 0.033819 75.712 0.006812 77.908
           0.006834 84.040 0.006812 77.908 0.999953 -6.399
6.10000000 0.033924 77.161 0.999401 -13.63 0.006856 84.020
           0.999401 -13.63 0.033928 75.665 0.006834 77.868
           0.006856 84.020 0.006834 77.868 0.999953 -6.420
6.12000000 0.034033 77.119 0.999397 -13.67 0.006879 84.000
           0.999397 -13.67 0.034037 75.618 0.006857 77.829
           0.006879 84.000 0.006857 77.829 0.999953 -6.441
6.14000000 0.034142 77.077 0.999393 -13.72 0.006902 83.981
           0.999393 -13.72 0.034146 75.571 0.006879 77.789
           0.006902 83.981 0.006879 77.789 0.999953 -6.462
6.16000000 0.034251 77.035 0.999389 -13.76 0.006924 83.961
           0.999389 -13.76 0.034255 75.524 0.006902 77.749
           0.006924 83.961 0.006902 77.749 0.999952 -6.483
6.18000000 0.034359 76.993 0.999385 -13.81 0.006947 83.941
           0.999385 -13.81 0.034364 75.477 0.006924 77.709
           0.006947 83.941 0.006924 77.709 0.999952 -6.504
6.20000000 0.034468 76.951 0.999382 -13.85 0.006970 83.921
           0.999382 -13.85 0.034473 75.430 0.006947 77.670
           0.006970 83.921 0.006947 77.670 0.999952 -6.525
6.22000000 0.034577 76.909 0.999378 -13.89 0.006992 83.901
           0.999378 -13.89 0.034582 75.383 0.006969 77.630
           0.006992 83.901 0.006969 77.630 0.999951 -6.547
6.24000000 0.034686 76.867 0.999374 -13.94 0.007015 83.882
           0.999374 -13.94 0.034691 75.336 0.006991 77.590
           0.007015 83.882 0.006991 77.590 0.999951 -6.568
6.26000000 0.034795 76.825 0.999370 -13.98 0.007038 83.862
           0.999370 -13.98 0.034800 75.289 0.007014 77.550
           0.007038 83.862 0.007014 77.550 0.999951 -6.589
6.28000000 0.034904 76.783 0.999366 -14.03 0.007060 83.842
           0.999366 -14.03 0.034909 75.242 0.007036 77.511
           0.007060 83.842 0.007036 77.511 0.999950 -6.610
6.30000000 0.035012 76.741 0.999362 -14.07 0.007083 83.822
           0.999362 -14.07 0.035017 75.195 0.007059 77.471
           0.007083 83.822 0.007059 77.471 0.999950 -6.631
6.32000000 0.035121 76.699 0.999358 -14.12 0.007106 83.802
           0.999358 -14.12 0.035126 75.148 0.007081 77.431
           0.007106 83.802 0.007081 77.431 0.999950 -6.652
6.34000000 0.035230 76.657 0.999354 -14.16 0.007128 83.783
           0.999354 -14.16 0.035235 75.101 0.007104 77.391
           0.007128 83.783 0.007104 77.391 0.999949 -6.673
6.36000000 0.035338 76.615 0.999350 -14.21 0.007151 83.763
           0.999350 -14.21 0.035344 75.054 0.007126 77.352
           0.007151 83.763 0.007126 77.352 0.999949 -6.694
6.38000000 0.035447 76.573 0.999346 -14.25 0.007174 83.743
           0.999346 -14.25 0.035452 75.007 0.007149 77.312
           0.007174 83.743 0.007149 77.312 0.999949 -6.715
6.40000000 0.035556 76.531 0.999342 -14.30 0.007196 83.723
           0.999342 -14.30 0.035561 74.960 0.007171 77.272
           0.007196 83.723 0.007171 77.272 0.999948 -6.736
6.42000000 0.035664 76.489 0.999338 -14.34 0.007219 83.703
           0.999338 -14.34 0.035670 74.913 0.007193 77.232
           0.007219 83.703 0.007193 77.232 0.999948 -6.757
6.44000000 0.035773 76.447 0.999334 -14.39 0.007242 83.684
           0.999334 -14.39 0.035778 74.866 0.007216 77.193
           0.007242 83.684 0.007216 77.193 0.999948 -6.778
6.46000000 0.035881 76.405 0.999330 -14.43 0.007264 83.664
           0.999330 -14.43 0.035887 74.819 0.007238 77.153
           0.007264 83.664 0.007238 77.153 0.999947 -6.799
6.48000000 0.035990 76.363 0.999326 -14.48 0.007287 83.644
           0.999326 -14.48 0.035996 74.772 0.007261 77.113
           0.007287 83.644 0.007261 77.113 0.999947 -6.821
6.50000000 0.036098 76.321 0.999322 -14.52 0.007310 83.624
           0.999322 -14.52 0.036104 74.725 0.007283 77.073
           0.007310 83.624 0.007283 77.073 0.999947 -6.842
6.52000000 0.036207 76.279 0.999318 -14.56 0.007332 83.604
           0.999318 -14.56 0.036213 74.678 0.007306 77.034
           0.007332 83.604 0.007306 77.034 0.999946 -6.863
6.54000000 0.036315 76.237 0.999314 -14.61 0.007355 83.584
           0.999314 -14.61 0.036321 74.631 0.007328 76.994
           0.007355 83.584 0.007328 76.994 0.999946 -6.884
6.56000000 0.036424 76.195 0.999309 -14.65 0.007378 83.565
           0.999309 -14.65 0.036430 74.584 0.007351 76.954
           0.007378 83.565 0.007351 76.954 0.999946 -6.905
6.58000000 0.036532 76.153 0.999305 -14.70 0.007401 83.545
           0.999305 -14.70 0.036538 74.537 0.007373 76.914
           0.007401 83.545 0.007373 76.914 0.999945 -6.926
6.60000000 0.036641 76.111 0.999301 -14.74 0.007423 83.525
           0.999301 -14.74 0.036647 74.490 0.007396 76.875
           0.007423 83.525 0.007396 76.875 0.999945 -6.947
6.62000000 0.036749 76.069 0.999297 -14.79 0.007446 83.505
           0.999297 -14.79 0.036755 74.443 0.007418 76.835
           0.007446 83.505 0.007418 76.835 0.999945 -6.968
6.64000000 0.036857 76.027 0.999293 -14.83 0.007469 83.485
           0.999293 -14.83 0.036864 74.396 0.007440 76.795
           0.007469 83.485 0.007440 76.795 0.999944 -6.989
6.66000000 0.036966 75.985 0.999289 -14.88 0.007491 83.465
           0.999289 -14.88 0.036972 74.349 0.007463 76.755
           0.007491 83.465 0.007463 76.755 0.999944 -7.010
6.68000000 0.037074 75.943 0.999285 -14.92 0.007514 83.446
           0.999285 -14.92 0.037080 74.302 0.007485 76.716
           0.007514 83.446 0.007485 76.716 0.999944 -7.031
6.70000000 0.037182 75.901 0.999280 -14.97 0.007537 83.426
           0.999280 -14.97 0.037189 74.255 0.007508 76.676
           0.007537 83.426 0.007508 76.676 0.999943 -7.052
6.72000000 0.037290 75.859 0.999276 -15.01 0.007560 83.406
           0.999276 -15.01 0.037297 74.208 0.007530 76.636
           0.007560 83.406 0.007530 76.636 0.999943 -7.073
6.74000000 0.037399 75.817 0.999272 -15.06 0.007582 83.386
           0.999272 -15.06 0.037405 74.161 0.007553 76.596
           0.007582 83.386 0.007553 76.596 0.999943 -7.095
6.76000000 0.037507 75.775 0.999268 -15.10 0.007605 83.366
           0.999268 -15.10 0.037514 74.114 0.007575 76.557
           0.007605 83.366 0.007575 76.557 0.999942 -7.116
6.78000000 0.037615 75.733 0.999264 -15.14 0.007628 83.346
           0.999264 -15.14 0.037622 74.067 0.007598 76.517
           0.007628 83.346 0.007598 76.517 0.999942 -7.137
6.80000000 0.037723 75.691 0.999259 -15.19 0.007650 83.326
           0.999259 -15.19 0.037730 74.020 0.007620 76.477
           0.007650 83.326 0.007620 76.477 0.999942 -7.158
6.82000000 0.037831 75.649 0.999255 -15.23 0.007673 83.307
           0.999255 -15.23 0.037838 73.973 0.007643 76.437
           0.007673 83.307 0.007643 76.437 0.999941 -7.179
6.84000000 0.037940 75.607 0.999251 -15.28 0.007696 83.287
           0.999251 -15.28 0.037946 73.926 0.007665 76.397
           0.007696 83.287 0.007665 76.397 0.999941 -7.200
6.86000000 0.038048 75.565 0.999247 -15.32 0.007719 83.267
           0.999247 -15.32 0.038055 73.879 0.007687 76.358
           0.007719 83.267 0.007687 76.358 0.999941 -7.221
6.88000000 0.038156 75.523 0.999242 -15.37 0.007741 83.247
           0.999242 -15.37 0.038163 73.832 0.007710 76.318
           0.007741 83.247 0.007710 76.318 0.999940 -7.242
6.90000000 0.038264 75.481 0.999238 -15.41 0.007764 83.227
           0.999238 -15.41 0.038271 73.785 0.007732 76.278
           0.007764 83.227 0.007732 76.278 0.999940 -7.263
6.92000000 0.038372 75.439 0.999234 -15.46 0.007787 83.207
           0.999234 -15.46 0.038379 73.739 0.007755 76.238
           0.007787 83.207 0.007755 76.238 0.999940 -7.284
6.94000000 0.038480 75.397 0.999229 -15.50 0.007810 83.187
           0.999229 -15.50 0.038487 73.692 0.007777 76.199
           0.007810 83.187 0.007777 76.199 0.999939 -7.305
6.96000000 0.038588 75.355 0.999225 -15.55 0.007832 83.168
           0.999225 -15.55 0.038595 73.645 0.007800 76.159
           0.007832 83.168 0.007800 76.159 0.999939 -7.326
6.98000000 0.038696 75.313 0.999221 -15.59 0.007855 83.148
           0.999221 -15.59 0.038703 73.598 0.007822 76.119
           0.007855 83.148 0.007822 76.119 0.999939 -7.348
7.00000000 0.038804 75.271 0.999216 -15.64 0.007878 83.128
           0.999216 -15.64 0.038811 73.551 0.007845 76.079
           0.007878 83.128 0.007845 76.079 0.999938 -7.369
7.02000000 0.038911 75.229 0.999212 -15.68 0.007900 83.108
           0.999212 -15.68 0.038919 73.504 0.007867 76.040
           0.007900 83.108 0.007867 76.040 0.999938 -7.390
7.04000000 0.039019 75.187 0.999208 -15.72 0.007923 83.088
           0.999208 -15.72 0.039027 73.457 0.007890 76.000
           0.007923 83.088 0.007890 76.000 0.999938 -7.411
7.06000000 0.039127 75.146 0.999203 -15.77 0.007946 83.068
           0.999203 -15.77 0.039135 73.410 0.007912 75.960
           0.007946 83.068 0.007912 75.960 0.999937 -7.432
7.08000000 0.039235 75.104 0.999199 -15.81 0.007969 83.048
           0.999199 -15.81 0.039243 73.363 0.007935 75.920
           0.007969 83.048 0.007935 75.920 0.999937 -7.453
7.10000000 0.039343 75.062 0.999194 -15.86 0.007991 83.028
           0.999194 -15.86 0.039350 73.316 0.007957 75.881
           0.007991 83.028 0.007957 75.881 0.999936 -7.474
7.12000000 0.039450 75.020 0.999190 -15.90 0.008014 83.008
           0.999190 -15.90 0.039458 73.269 0.007979 75.841
           0.008014 83.008 0.007979 75.841 0.999936 -7.495
7.14000000 0.039558 74.978 0.999185 -15.95 0.008037 82.989
           0.999185 -15.95 0.039566 73.222 0.008002 75.801
           0.008037 82.989 0.008002 75.801 0.999936 -7.516
7.16000000 0.039666 74.936 0.999181 -15.99 0.008060 82.969
           0.999181 -15.99 0.039674 73.175 0.008024 75.761
           0.008060 82.969 0.008024 75.761 0.999935 -7.537
7.18000000 0.039774 74.894 0.999177 -16.04 0.008082 82.949
           0.999177 -16.04 0.039782 73.128 0.008047 75.722
           0.008082 82.949 0.008047 75.722 0.999935 -7.558
7.20000000 0.039881 74.852 0.999172 -16.08 0.008105 82.929
           0.999172 -16.08 0.039889 73.081 0.008069 75.682
           0.008105 82.929 0.008069 75.682 0.999935 -7.579
7.22000000 0.039989 74.810 0.999168 -16.13 0.008128 82.909
           0.999168 -16.13 0.039997 73.034 0.008092 75.642
           0.008128 82.909 0.008092 75.642 0.999934 -7.601
7.24000000 0.040097 74.768 0.999163 -16.17 0.008151 82.889
           0.999163 -16.17 0.040105 72.987 0.008114 75.602
           0.008151 82.889 0.008114 75.602 0.999934 -7.622