! Sonnet Data File
! From: em Version : 15.52
! From Project: CPW_gap_coupler_3port_1um_FL_TS_6um
! Data is De-embedded 
! Data File Written: 08/14/2018 17:24:40
!< HDATE 08/14/2018 17:19:51
!< MDATE 08/14/2018 17:19:51
!< PARAMS
!< gap = 2.0
!< cpwS = 5.0
!< cpwS1 = 5.0
!< feedW = 12.0
!< feedS1 = 5.0
!< cond_length = 444.0
!< inner_length = 426.0
!< hangerW = 12.0000175
!< open_gap = 22.0
!< coupler_length = 450.0
!< END PARAMS
# GHZ S MA R 50.00000
4.00000000 0.025185 81.842 0.999576 -9.064 0.014610 77.602
           0.999576 -9.064 0.025160 80.514 0.014655 83.869
           0.014610 77.602 0.014655 83.869 0.999786 -10.90
!< P1 F=4.0 Eeff=(7.47584511 0.0) Z0=(59.3564362 0.0) R=0.0 C=0.0043333 
!< P2 F=4.0 Eeff=(7.6276531 0.0) Z0=(57.165907 0.0) R=0.0 C=0.00427574 
!< P3 F=4.0 Eeff=(7.40475659 0.0) Z0=(61.4168756 0.0) R=0.0 C=0.00441634 
4.02000000 0.025310 81.801 0.999572 -9.110 0.014684 77.540
           0.999572 -9.110 0.025284 80.466 0.014729 83.838
           0.014684 77.540 0.014729 83.838 0.999784 -10.95
4.04000000 0.025436 81.760 0.999568 -9.155 0.014757 77.478
           0.999568 -9.155 0.025409 80.419 0.014802 83.807
           0.014757 77.478 0.014802 83.807 0.999782 -11.01
4.06000000 0.025561 81.719 0.999563 -9.200 0.014830 77.415
           0.999563 -9.200 0.025534 80.371 0.014876 83.777
           0.014830 77.415 0.014876 83.777 0.999779 -11.06
4.08000000 0.025686 81.679 0.999559 -9.246 0.014903 77.353
           0.999559 -9.246 0.025658 80.324 0.014950 83.746
           0.014903 77.353 0.014950 83.746 0.999777 -11.12
4.10000000 0.025811 81.638 0.999555 -9.291 0.014976 77.291
           0.999555 -9.291 0.025783 80.277 0.015024 83.715
           0.014976 77.291 0.015024 83.715 0.999775 -11.17
4.12000000 0.025936 81.597 0.999550 -9.336 0.015049 77.229
           0.999550 -9.336 0.025907 80.229 0.015098 83.684
           0.015049 77.229 0.015098 83.684 0.999773 -11.22
4.14000000 0.026061 81.556 0.999546 -9.381 0.015122 77.167
           0.999546 -9.381 0.026032 80.182 0.015171 83.653
           0.015122 77.167 0.015171 83.653 0.999771 -11.28
4.16000000 0.026186 81.516 0.999542 -9.427 0.015195 77.105
           0.999542 -9.427 0.026157 80.134 0.015245 83.622
           0.015195 77.105 0.015245 83.622 0.999768 -11.33
4.18000000 0.026311 81.475 0.999537 -9.472 0.015268 77.043
           0.999537 -9.472 0.026281 80.087 0.015319 83.591
           0.015268 77.043 0.015319 83.591 0.999766 -11.39
4.20000000 0.026436 81.434 0.999533 -9.517 0.015341 76.981
           0.999533 -9.517 0.026406 80.039 0.015393 83.560
           0.015341 76.981 0.015393 83.560 0.999764 -11.44
4.22000000 0.026561 81.393 0.999528 -9.563 0.015415 76.919
           0.999528 -9.563 0.026530 79.992 0.015467 83.529
           0.015415 76.919 0.015467 83.529 0.999762 -11.50
4.24000000 0.026685 81.352 0.999524 -9.608 0.015488 76.857
           0.999524 -9.608 0.026655 79.945 0.015541 83.498
           0.015488 76.857 0.015541 83.498 0.999759 -11.55
4.26000000 0.026810 81.312 0.999519 -9.653 0.015561 76.795
           0.999519 -9.653 0.026779 79.897 0.015614 83.467
           0.015561 76.795 0.015614 83.467 0.999757 -11.61
4.28000000 0.026935 81.271 0.999515 -9.699 0.015634 76.733
           0.999515 -9.699 0.026904 79.850 0.015688 83.436
           0.015634 76.733 0.015688 83.436 0.999755 -11.66
4.30000000 0.027060 81.230 0.999510 -9.744 0.015707 76.671
           0.999510 -9.744 0.027028 79.802 0.015762 83.405
           0.015707 76.671 0.015762 83.405 0.999753 -11.72
4.32000000 0.027185 81.189 0.999506 -9.789 0.015780 76.609
           0.999506 -9.789 0.027153 79.755 0.015836 83.375
           0.015780 76.609 0.015836 83.375 0.999750 -11.77
4.34000000 0.027310 81.149 0.999501 -9.834 0.015853 76.547
           0.999501 -9.834 0.027277 79.708 0.015910 83.344
           0.015853 76.547 0.015910 83.344 0.999748 -11.83
4.36000000 0.027435 81.108 0.999497 -9.880 0.015926 76.485
           0.999497 -9.880 0.027401 79.660 0.015984 83.313
           0.015926 76.485 0.015984 83.313 0.999746 -11.88
4.38000000 0.027560 81.067 0.999492 -9.925 0.015999 76.423
           0.999492 -9.925 0.027526 79.613 0.016058 83.282
           0.015999 76.423 0.016058 83.282 0.999743 -11.94
4.40000000 0.027684 81.026 0.999487 -9.970 0.016072 76.360
           0.999487 -9.970 0.027650 79.565 0.016132 83.251
           0.016072 76.360 0.016132 83.251 0.999741 -11.99
4.42000000 0.027809 80.985 0.999483 -10.02 0.016146 76.298
           0.999483 -10.02 0.027774 79.518 0.016206 83.220
           0.016146 76.298 0.016206 83.220 0.999739 -12.05
4.44000000 0.027934 80.945 0.999478 -10.06 0.016219 76.236
           0.999478 -10.06 0.027899 79.471 0.016279 83.189
           0.016219 76.236 0.016279 83.189 0.999736 -12.10
4.46000000 0.028059 80.904 0.999473 -10.11 0.016292 76.174
           0.999473 -10.11 0.028023 79.423 0.016353 83.158
           0.016292 76.174 0.016353 83.158 0.999734 -12.15
4.48000000 0.028184 80.863 0.999469 -10.15 0.016365 76.112
           0.999469 -10.15 0.028147 79.376 0.016427 83.127
           0.016365 76.112 0.016427 83.127 0.999731 -12.21
4.50000000 0.028308 80.822 0.999464 -10.20 0.016438 76.050
           0.999464 -10.20 0.028272 79.328 0.016501 83.096
           0.016438 76.050 0.016501 83.096 0.999729 -12.26
4.52000000 0.028433 80.782 0.999459 -10.24 0.016511 75.988
           0.999459 -10.24 0.028396 79.281 0.016575 83.065
           0.016511 75.988 0.016575 83.065 0.999727 -12.32
4.54000000 0.028558 80.741 0.999455 -10.29 0.016584 75.926
           0.999455 -10.29 0.028520 79.234 0.016649 83.034
           0.016584 75.926 0.016649 83.034 0.999724 -12.37
4.56000000 0.028683 80.700 0.999450 -10.33 0.016657 75.864
           0.999450 -10.33 0.028644 79.186 0.016723 83.003
           0.016657 75.864 0.016723 83.003 0.999722 -12.43
4.58000000 0.028807 80.659 0.999445 -10.38 0.016731 75.802
           0.999445 -10.38 0.028769 79.139 0.016797 82.972
           0.016731 75.802 0.016797 82.972 0.999719 -12.48
4.60000000 0.028932 80.619 0.999440 -10.42 0.016804 75.740
           0.999440 -10.42 0.028893 79.091 0.016871 82.941
           0.016804 75.740 0.016871 82.941 0.999717 -12.54
4.62000000 0.029057 80.578 0.999435 -10.47 0.016877 75.677
           0.999435 -10.47 0.029017 79.044 0.016945 82.910
           0.016877 75.677 0.016945 82.910 0.999714 -12.59
4.64000000 0.029181 80.537 0.999430 -10.51 0.016950 75.615
           0.999430 -10.51 0.029141 78.996 0.017019 82.879
           0.016950 75.615 0.017019 82.879 0.999712 -12.65
4.66000000 0.029306 80.496 0.999425 -10.56 0.017023 75.553
           0.999425 -10.56 0.029265 78.949 0.017093 82.848
           0.017023 75.553 0.017093 82.848 0.999709 -12.70
4.68000000 0.029430 80.456 0.999421 -10.60 0.017096 75.491
           0.999421 -10.60 0.029389 78.902 0.017167 82.817
           0.017096 75.491 0.017167 82.817 0.999707 -12.76
4.70000000 0.029555 80.415 0.999416 -10.65 0.017169 75.429
           0.999416 -10.65 0.029513 78.854 0.017241 82.786
           0.017169 75.429 0.017241 82.786 0.999704 -12.81
4.72000000 0.029680 80.374 0.999411 -10.70 0.017242 75.367
           0.999411 -10.70 0.029637 78.807 0.017315 82.755
           0.017242 75.367 0.017315 82.755 0.999702 -12.87
4.74000000 0.029804 80.333 0.999406 -10.74 0.017316 75.305
           0.999406 -10.74 0.029761 78.759 0.017389 82.724
           0.017316 75.305 0.017389 82.724 0.999699 -12.92
4.76000000 0.029929 80.293 0.999401 -10.79 0.017389 75.243
           0.999401 -10.79 0.029885 78.712 0.017463 82.693
           0.017389 75.243 0.017463 82.693 0.999697 -12.98
4.78000000 0.030053 80.252 0.999396 -10.83 0.017462 75.181
           0.999396 -10.83 0.030009 78.665 0.017538 82.662
           0.017462 75.181 0.017538 82.662 0.999694 -13.03
4.80000000 0.030178 80.211 0.999391 -10.88 0.017535 75.118
           0.999391 -10.88 0.030133 78.617 0.017612 82.631
           0.017535 75.118 0.017612 82.631 0.999691 -13.08
4.82000000 0.030302 80.170 0.999386 -10.92 0.017608 75.056
           0.999386 -10.92 0.030257 78.570 0.017686 82.600
           0.017608 75.056 0.017686 82.600 0.999689 -13.14
4.84000000 0.030427 80.130 0.999381 -10.97 0.017681 74.994
           0.999381 -10.97 0.030381 78.522 0.017760 82.569
           0.017681 74.994 0.017760 82.569 0.999686 -13.19
4.86000000 0.030551 80.089 0.999375 -11.01 0.017754 74.932
           0.999375 -11.01 0.030505 78.475 0.017834 82.538
           0.017754 74.932 0.017834 82.538 0.999684 -13.25
4.88000000 0.030676 80.048 0.999370 -11.06 0.017827 74.870
           0.999370 -11.06 0.030629 78.428 0.017908 82.507
           0.017827 74.870 0.017908 82.507 0.999681 -13.30
4.90000000 0.030800 80.007 0.999365 -11.10 0.017901 74.808
           0.999365 -11.10 0.030753 78.380 0.017982 82.476
           0.017901 74.808 0.017982 82.476 0.999678 -13.36
4.92000000 0.030925 79.967 0.999360 -11.15 0.017974 74.746
           0.999360 -11.15 0.030877 78.333 0.018056 82.445
           0.017974 74.746 0.018056 82.445 0.999676 -13.41
4.94000000 0.031049 79.926 0.999355 -11.19 0.018047 74.684
           0.999355 -11.19 0.031000 78.285 0.018130 82.414
           0.018047 74.684 0.018130 82.414 0.999673 -13.47
4.96000000 0.031174 79.885 0.999350 -11.24 0.018120 74.622
           0.999350 -11.24 0.031124 78.238 0.018205 82.383
           0.018120 74.622 0.018205 82.383 0.999670 -13.52
4.98000000 0.031298 79.844 0.999344 -11.28 0.018193 74.559
           0.999344 -11.28 0.031248 78.191 0.018279 82.351
           0.018193 74.559 0.018279 82.351 0.999668 -13.58
5.00000000 0.031422 79.803 0.999339 -11.33 0.018266 74.497
           0.999339 -11.33 0.031372 78.143 0.018353 82.320
           0.018266 74.497 0.018353 82.320 0.999665 -13.63
5.02000000 0.031547 79.763 0.999334 -11.37 0.018339 74.435
           0.999334 -11.37 0.031496 78.096 0.018427 82.289
           0.018339 74.435 0.018427 82.289 0.999662 -13.69
5.04000000 0.031671 79.722 0.999329 -11.42 0.018413 74.373
           0.999329 -11.42 0.031619 78.048 0.018501 82.258
           0.018413 74.373 0.018501 82.258 0.999660 -13.74
5.06000000 0.031795 79.681 0.999323 -11.47 0.018486 74.311
           0.999323 -11.47 0.031743 78.001 0.018575 82.227
           0.018486 74.311 0.018575 82.227 0.999657 -13.80
5.08000000 0.031920 79.640 0.999318 -11.51 0.018559 74.249
           0.999318 -11.51 0.031867 77.954 0.018650 82.196
           0.018559 74.249 0.018650 82.196 0.999654 -13.85
5.10000000 0.032044 79.600 0.999313 -11.56 0.018632 74.187
           0.999313 -11.56 0.031990 77.906 0.018724 82.165
           0.018632 74.187 0.018724 82.165 0.999651 -13.91
5.12000000 0.032168 79.559 0.999307 -11.60 0.018705 74.124
           0.999307 -11.60 0.032114 77.859 0.018798 82.134
           0.018705 74.124 0.018798 82.134 0.999649 -13.96
5.14000000 0.032292 79.518 0.999302 -11.65 0.018778 74.062
           0.999302 -11.65 0.032238 77.811 0.018872 82.103
           0.018778 74.062 0.018872 82.103 0.999646 -14.02
5.16000000 0.032417 79.478 0.999297 -11.69 0.018851 74.000
           0.999297 -11.69 0.032361 77.764 0.018947 82.072
           0.018851 74.000 0.018947 82.072 0.999643 -14.07
5.18000000 0.032541 79.437 0.999291 -11.74 0.018925 73.938
           0.999291 -11.74 0.032485 77.717 0.019021 82.041
           0.018925 73.938 0.019021 82.041 0.999640 -14.13
5.20000000 0.032665 79.396 0.999286 -11.78 0.018998 73.876
           0.999286 -11.78 0.032608 77.669 0.019095 82.009
           0.018998 73.876 0.019095 82.009 0.999637 -14.18
5.22000000 0.032789 79.355 0.999280 -11.83 0.019071 73.814
           0.999280 -11.83 0.032732 77.622 0.019169 81.978
           0.019071 73.814 0.019169 81.978 0.999635 -14.24
5.24000000 0.032913 79.315 0.999275 -11.87 0.019144 73.752
           0.999275 -11.87 0.032855 77.574 0.019244 81.947
           0.019144 73.752 0.019244 81.947 0.999632 -14.29
5.26000000 0.033038 79.274 0.999269 -11.92 0.019217 73.689
           0.999269 -11.92 0.032979 77.527 0.019318 81.916
           0.019217 73.689 0.019318 81.916 0.999629 -14.34
5.28000000 0.033162 79.233 0.999264 -11.96 0.019290 73.627
           0.999264 -11.96 0.033102 77.480 0.019392 81.885
           0.019290 73.627 0.019392 81.885 0.999626 -14.40
5.30000000 0.033286 79.192 0.999258 -12.01 0.019364 73.565
           0.999258 -12.01 0.033226 77.432 0.019467 81.854
           0.019364 73.565 0.019467 81.854 0.999623 -14.45
5.32000000 0.033410 79.152 0.999253 -12.05 0.019437 73.503
           0.999253 -12.05 0.033349 77.385 0.019541 81.823
           0.019437 73.503 0.019541 81.823 0.999620 -14.51
5.34000000 0.033534 79.111 0.999247 -12.10 0.019510 73.441
           0.999247 -12.10 0.033473 77.337 0.019615 81.792
           0.019510 73.441 0.019615 81.792 0.999617 -14.56
5.36000000 0.033658 79.070 0.999242 -12.14 0.019583 73.379
           0.999242 -12.14 0.033596 77.290 0.019689 81.760
           0.019583 73.379 0.019689 81.760 0.999614 -14.62
5.38000000 0.033782 79.029 0.999236 -12.19 0.019656 73.317
           0.999236 -12.19 0.033719 77.243 0.019764 81.729
           0.019656 73.317 0.019764 81.729 0.999612 -14.67
5.40000000 0.033906 78.989 0.999230 -12.23 0.019729 73.254
           0.999230 -12.23 0.033843 77.195 0.019838 81.698
           0.019729 73.254 0.019838 81.698 0.999609 -14.73
5.42000000 0.034030 78.948 0.999225 -12.28 0.019802 73.192
           0.999225 -12.28 0.033966 77.148 0.019913 81.667
           0.019802 73.192 0.019913 81.667 0.999606 -14.78
5.44000000 0.034154 78.907 0.999219 -12.33 0.019876 73.130
           0.999219 -12.33 0.034089 77.101 0.019987 81.636
           0.019876 73.130 0.019987 81.636 0.999603 -14.84
5.46000000 0.034278 78.866 0.999213 -12.37 0.019949 73.068
           0.999213 -12.37 0.034213 77.053 0.020061 81.605
           0.019949 73.068 0.020061 81.605 0.999600 -14.89
5.48000000 0.034402 78.826 0.999207 -12.42 0.020022 73.006
           0.999207 -12.42 0.034336 77.006 0.020136 81.574
           0.020022 73.006 0.020136 81.574 0.999597 -14.95
5.50000000 0.034526 78.785 0.999202 -12.46 0.020095 72.944
           0.999202 -12.46 0.034459 76.958 0.020210 81.542
           0.020095 72.944 0.020210 81.542 0.999594 -15.00
5.52000000 0.034650 78.744 0.999196 -12.51 0.020168 72.881
           0.999196 -12.51 0.034582 76.911 0.020285 81.511
           0.020168 72.881 0.020285 81.511 0.999591 -15.06
5.54000000 0.034774 78.703 0.999190 -12.55 0.020241 72.819
           0.999190 -12.55 0.034705 76.864 0.020359 81.480
           0.020241 72.819 0.020359 81.480 0.999588 -15.11
5.56000000 0.034898 78.663 0.999184 -12.60 0.020315 72.757
           0.999184 -12.60 0.034829 76.816 0.020433 81.449
           0.020315 72.757 0.020433 81.449 0.999585 -15.17
5.58000000 0.035022 78.622 0.999179 -12.64 0.020388 72.695
           0.999179 -12.64 0.034952 76.769 0.020508 81.418
           0.020388 72.695 0.020508 81.418 0.999582 -15.22
5.60000000 0.035146 78.581 0.999173 -12.69 0.020461 72.633
           0.999173 -12.69 0.035075 76.721 0.020582 81.386
           0.020461 72.633 0.020582 81.386 0.999579 -15.28
5.62000000 0.035269 78.540 0.999167 -12.73 0.020534 72.571
           0.999167 -12.73 0.035198 76.674 0.020657 81.355
           0.020534 72.571 0.020657 81.355 0.999576 -15.33
5.64000000 0.035393 78.500 0.999161 -12.78 0.020607 72.508
           0.999161 -12.78 0.035321 76.627 0.020731 81.324
           0.020607 72.508 0.020731 81.324 0.999573 -15.39
5.66000000 0.035517 78.459 0.999155 -12.82 0.020680 72.446
           0.999155 -12.82 0.035444 76.579 0.020806 81.293
           0.020680 72.446 0.020806 81.293 0.999570 -15.44
5.68000000 0.035641 78.418 0.999149 -12.87 0.020754 72.384
           0.999149 -12.87 0.035567 76.532 0.020880 81.262
           0.020754 72.384 0.020880 81.262 0.999567 -15.50
!< P1 F=5.68 Eeff=(7.47587946 0.0) Z0=(59.356256 0.0) R=0.0 C=0.00433329 
!< P2 F=5.68 Eeff=(7.62768496 0.0) Z0=(57.1657399 0.0) R=0.0 C=0.00427574 
!< P3 F=5.68 Eeff=(7.4047907 0.0) Z0=(61.4166864 0.0) R=0.0 C=0.00441634 
5.70000000 0.035765 78.378 0.999143 -12.91 0.020827 72.322
           0.999143 -12.91 0.035690 76.484 0.020955 81.230
           0.020827 72.322 0.020955 81.230 0.999563 -15.55
5.72000000 0.035888 78.337 0.999137 -12.96 0.020900 72.260
           0.999137 -12.96 0.035813 76.437 0.021029 81.199
           0.020900 72.260 0.021029 81.199 0.999560 -15.61
5.74000000 0.036012 78.296 0.999131 -13.00 0.020973 72.198
           0.999131 -13.00 0.035936 76.390 0.021104 81.168
           0.020973 72.198 0.021104 81.168 0.999557 -15.66
5.76000000 0.036136 78.255 0.999125 -13.05 0.021046 72.135
           0.999125 -13.05 0.036059 76.342 0.021178 81.137
           0.021046 72.135 0.021178 81.137 0.999554 -15.72
5.78000000 0.036260 78.215 0.999119 -13.10 0.021120 72.073
           0.999119 -13.10 0.036182 76.295 0.021253 81.105
           0.021120 72.073 0.021253 81.105 0.999551 -15.77
5.80000000 0.036383 78.174 0.999113 -13.14 0.021193 72.011
           0.999113 -13.14 0.036305 76.248 0.021327 81.074
           0.021193 72.011 0.021327 81.074 0.999548 -15.83
5.82000000 0.036507 78.133 0.999107 -13.19 0.021266 71.949
           0.999107 -13.19 0.036427 76.200 0.021402 81.043
           0.021266 71.949 0.021402 81.043 0.999545 -15.88
5.84000000 0.036631 78.092 0.999101 -13.23 0.021339 71.887
           0.999101 -13.23 0.036550 76.153 0.021476 81.012
           0.021339 71.887 0.021476 81.012 0.999542 -15.94
5.86000000 0.036754 78.052 0.999095 -13.28 0.021412 71.825
           0.999095 -13.28 0.036673 76.105 0.021551 80.980
           0.021412 71.825 0.021551 80.980 0.999538 -15.99
5.88000000 0.036878 78.011 0.999089 -13.32 0.021485 71.762
           0.999089 -13.32 0.036796 76.058 0.021626 80.949
           0.021485 71.762 0.021626 80.949 0.999535 -16.05
5.90000000 0.037001 77.970 0.999083 -13.37 0.021559 71.700
           0.999083 -13.37 0.036919 76.011 0.021700 80.918
           0.021559 71.700 0.021700 80.918 0.999532 -16.10
5.92000000 0.037125 77.929 0.999076 -13.41 0.021632 71.638
           0.999076 -13.41 0.037041 75.963 0.021775 80.886
           0.021632 71.638 0.021775 80.886 0.999529 -16.16
5.94000000 0.037249 77.889 0.999070 -13.46 0.021705 71.576
           0.999070 -13.46 0.037164 75.916 0.021849 80.855
           0.021705 71.576 0.021849 80.855 0.999526 -16.21
5.96000000 0.037372 77.848 0.999064 -13.50 0.021778 71.514
           0.999064 -13.50 0.037287 75.868 0.021924 80.824
           0.021778 71.514 0.021924 80.824 0.999522 -16.27
5.98000000 0.037496 77.807 0.999058 -13.55 0.021851 71.451
           0.999058 -13.55 0.037409 75.821 0.021999 80.793
           0.021851 71.451 0.021999 80.793 0.999519 -16.32
6.00000000 0.037619 77.767 0.999052 -13.59 0.021925 71.389
           0.999052 -13.59 0.037532 75.774 0.022073 80.761
           0.021925 71.389 0.022073 80.761 0.999516 -16.38
6.02000000 0.037743 77.726 0.999045 -13.64 0.021998 71.327
           0.999045 -13.64 0.037655 75.726 0.022148 80.730
           0.021998 71.327 0.022148 80.730 0.999513 -16.43
6.04000000 0.037866 77.685 0.999039 -13.68 0.022071 71.265
           0.999039 -13.68 0.037777 75.679 0.022223 80.699
           0.022071 71.265 0.022223 80.699 0.999509 -16.49
6.06000000 0.037990 77.644 0.999033 -13.73 0.022144 71.203
           0.999033 -13.73 0.037900 75.632 0.022297 80.667
           0.022144 71.203 0.022297 80.667 0.999506 -16.54
6.08000000 0.038113 77.604 0.999026 -13.77 0.022217 71.140
           0.999026 -13.77 0.038022 75.584 0.022372 80.636
           0.022217 71.140 0.022372 80.636 0.999503 -16.60
6.10000000 0.038236 77.563 0.999020 -13.82 0.022290 71.078
           0.999020 -13.82 0.038145 75.537 0.022447 80.605
           0.022290 71.078 0.022447 80.605 0.999499 -16.65
6.12000000 0.038360 77.522 0.999014 -13.86 0.022364 71.016
           0.999014 -13.86 0.038267 75.489 0.022522 80.573
           0.022364 71.016 0.022522 80.573 0.999496 -16.71
6.14000000 0.038483 77.481 0.999007 -13.91 0.022437 70.954
           0.999007 -13.91 0.038390 75.442 0.022596 80.542
           0.022437 70.954 0.022596 80.542 0.999493 -16.76
6.16000000 0.038606 77.441 0.999001 -13.96 0.022510 70.892
           0.999001 -13.96 0.038512 75.395 0.022671 80.511
           0.022510 70.892 0.022671 80.511 0.999489 -16.82
6.18000000 0.038730 77.400 0.998995 -14.00 0.022583 70.829
           0.998995 -14.00 0.038635 75.347 0.022746 80.479
           0.022583 70.829 0.022746 80.479 0.999486 -16.87
6.20000000 0.038853 77.359 0.998988 -14.05 0.022656 70.767
           0.998988 -14.05 0.038757 75.300 0.022821 80.448
           0.022656 70.767 0.022821 80.448 0.999483 -16.93
6.22000000 0.038976 77.319 0.998982 -14.09 0.022730 70.705
           0.998982 -14.09 0.038879 75.253 0.022895 80.417
           0.022730 70.705 0.022895 80.417 0.999479 -16.98
6.24000000 0.039100 77.278 0.998975 -14.14 0.022803 70.643
           0.998975 -14.14 0.039002 75.205 0.022970 80.385
           0.022803 70.643 0.022970 80.385 0.999476 -17.04
6.26000000 0.039223 77.237 0.998969 -14.18 0.022876 70.580
           0.998969 -14.18 0.039124 75.158 0.023045 80.354
           0.022876 70.580 0.023045 80.354 0.999473 -17.09
6.28000000 0.039346 77.196 0.998962 -14.23 0.022949 70.518
           0.998962 -14.23 0.039246 75.110 0.023120 80.323
           0.022949 70.518 0.023120 80.323 0.999469 -17.15
6.30000000 0.039469 77.156 0.998956 -14.27 0.023022 70.456
           0.998956 -14.27 0.039368 75.063 0.023195 80.291
           0.023022 70.456 0.023195 80.291 0.999466 -17.20
6.32000000 0.039593 77.115 0.998949 -14.32 0.023096 70.394
           0.998949 -14.32 0.039491 75.016 0.023269 80.260
           0.023096 70.394 0.023269 80.260 0.999462 -17.26
6.34000000 0.039716 77.074 0.998942 -14.36 0.023169 70.332
           0.998942 -14.36 0.039613 74.968 0.023344 80.228
           0.023169 70.332 0.023344 80.228 0.999459 -17.31
6.36000000 0.039839 77.033 0.998936 -14.41 0.023242 70.269
           0.998936 -14.41 0.039735 74.921 0.023419 80.197
           0.023242 70.269 0.023419 80.197 0.999455 -17.37
6.38000000 0.039962 76.993 0.998929 -14.45 0.023315 70.207
           0.998929 -14.45 0.039857 74.874 0.023494 80.166
           0.023315 70.207 0.023494 80.166 0.999452 -17.42
6.40000000 0.040085 76.952 0.998923 -14.50 0.023388 70.145
           0.998923 -14.50 0.039979 74.826 0.023569 80.134
           0.023388 70.145 0.023569 80.134 0.999448 -17.48
6.42000000 0.040208 76.911 0.998916 -14.54 0.023462 70.083
           0.998916 -14.54 0.040101 74.779 0.023644 80.103
           0.023462 70.083 0.023644 80.103 0.999445 -17.53
6.44000000 0.040331 76.871 0.998909 -14.59 0.023535 70.020
           0.998909 -14.59 0.040223 74.731 0.023719 80.071
           0.023535 70.020 0.023719 80.071 0.999442 -17.59
6.46000000 0.040454 76.830 0.998903 -14.63 0.023608 69.958
           0.998903 -14.63 0.040346 74.684 0.023794 80.040
           0.023608 69.958 0.023794 80.040 0.999438 -17.64
6.48000000 0.040577 76.789 0.998896 -14.68 0.023681 69.896
           0.998896 -14.68 0.040468 74.637 0.023868 80.009
           0.023681 69.896 0.023868 80.009 0.999434 -17.70
6.50000000 0.040700 76.748 0.998889 -14.72 0.023755 69.834
           0.998889 -14.72 0.040590 74.589 0.023943 79.977
           0.023755 69.834 0.023943 79.977 0.999431 -17.75
6.52000000 0.040823 76.708 0.998882 -14.77 0.023828 69.772
           0.998882 -14.77 0.040711 74.542 0.024018 79.946
           0.023828 69.772 0.024018 79.946 0.999427 -17.81
6.54000000 0.040946 76.667 0.998875 -14.82 0.023901 69.709
           0.998875 -14.82 0.040833 74.495 0.024093 79.914
           0.023901 69.709 0.024093 79.914 0.999424 -17.86
6.56000000 0.041069 76.626 0.998869 -14.86 0.023974 69.647
           0.998869 -14.86 0.040955 74.447 0.024168 79.883
           0.023974 69.647 0.024168 79.883 0.999420 -17.92
6.58000000 0.041192 76.586 0.998862 -14.91 0.024047 69.585
           0.998862 -14.91 0.041077 74.400 0.024243 79.851
           0.024047 69.585 0.024243 79.851 0.999417 -17.97
6.60000000 0.041315 76.545 0.998855 -14.95 0.024121 69.523
           0.998855 -14.95 0.041199 74.352 0.024318 79.820
           0.024121 69.523 0.024318 79.820 0.999413 -18.03
6.62000000 0.041438 76.504 0.998848 -15.00 0.024194 69.460
           0.998848 -15.00 0.041321 74.305 0.024393 79.788
           0.024194 69.460 0.024393 79.788 0.999410 -18.08
6.64000000 0.041561 76.463 0.998841 -15.04 0.024267 69.398
           0.998841 -15.04 0.041443 74.258 0.024468 79.757
           0.024267 69.398 0.024468 79.757 0.999406 -18.14
6.66000000 0.041684 76.423 0.998834 -15.09 0.024340 69.336
           0.998834 -15.09 0.041565 74.210 0.024543 79.725
           0.024340 69.336 0.024543 79.725 0.999402 -18.19
6.68000000 0.041807 76.382 0.998827 -15.13 0.024413 69.274
           0.998827 -15.13 0.041686 74.163 0.024618 79.694
           0.024413 69.274 0.024618 79.694 0.999399 -18.25
6.70000000 0.041929 76.341 0.998821 -15.18 0.024487 69.211
           0.998821 -15.18 0.041808 74.116 0.024693 79.662
           0.024487 69.211 0.024693 79.662 0.999395 -18.30
6.72000000 0.042052 76.300 0.998814 -15.22 0.024560 69.149
           0.998814 -15.22 0.041930 74.068 0.024768 79.631
           0.024560 69.149 0.024768 79.631 0.999391 -18.36
6.74000000 0.042175 76.260 0.998807 -15.27 0.024633 69.087
           0.998807 -15.27 0.042051 74.021 0.024843 79.599
           0.024633 69.087 0.024843 79.599 0.999388 -18.41
6.76000000 0.042298 76.219 0.998800 -15.31 0.024706 69.025
           0.998800 -15.31 0.042173 73.974 0.024919 79.568
           0.024706 69.025 0.024919 79.568 0.999384 -18.47
6.78000000 0.042420 76.178 0.998793 -15.36 0.024780 68.962
           0.998793 -15.36 0.042295 73.926 0.024994 79.536
           0.024780 68.962 0.024994 79.536 0.999380 -18.52
6.80000000 0.042543 76.138 0.998786 -15.40 0.024853 68.900
           0.998786 -15.40 0.042416 73.879 0.025069 79.505
           0.024853 68.900 0.025069 79.505 0.999377 -18.58
6.82000000 0.042666 76.097 0.998778 -15.45 0.024926 68.838
           0.998778 -15.45 0.042538 73.831 0.025144 79.473
           0.024926 68.838 0.025144 79.473 0.999373 -18.63
6.84000000 0.042788 76.056 0.998771 -15.49 0.024999 68.776
           0.998771 -15.49 0.042659 73.784 0.025219 79.442
           0.024999 68.776 0.025219 79.442 0.999369 -18.69
6.86000000 0.042911 76.015 0.998764 -15.54 0.025073 68.713
           0.998764 -15.54 0.042781 73.737 0.025294 79.410
           0.025073 68.713 0.025294 79.410 0.999366 -18.74
6.88000000 0.043034 75.975 0.998757 -15.58 0.025146 68.651
           0.998757 -15.58 0.042902 73.689 0.025369 79.379
           0.025146 68.651 0.025369 79.379 0.999362 -18.80
6.90000000 0.043156 75.934 0.998750 -15.63 0.025219 68.589
           0.998750 -15.63 0.043024 73.642 0.025444 79.347
           0.025219 68.589 0.025444 79.347 0.999358 -18.85
6.92000000 0.043279 75.893 0.998743 -15.68 0.025292 68.527
           0.998743 -15.68 0.043145 73.595 0.025520 79.316
           0.025292 68.527 0.025520 79.316 0.999354 -18.91
6.94000000 0.043401 75.853 0.998736 -15.72 0.025365 68.464
           0.998736 -15.72 0.043267 73.547 0.025595 79.284
           0.025365 68.464 0.025595 79.284 0.999351 -18.96
6.96000000 0.043524 75.812 0.998728 -15.77 0.025439 68.402
           0.998728 -15.77 0.043388 73.500 0.025670 79.253
           0.025439 68.402 0.025670 79.253 0.999347 -19.02
6.98000000 0.043646 75.771 0.998721 -15.81 0.025512 68.340
           0.998721 -15.81 0.043509 73.453 0.025745 79.221
           0.025512 68.340 0.025745 79.221 0.999343 -19.07
7.00000000 0.043769 75.730 0.998714 -15.86 0.025585 68.277
           0.998714 -15.86 0.043631 73.405 0.025820 79.189
           0.025585 68.277 0.025820 79.189 0.999339 -19.13
7.02000000 0.043891 75.690 0.998707 -15.90 0.025658 68.215
           0.998707 -15.90 0.043752 73.358 0.025896 79.158
           0.025658 68.215 0.025896 79.158 0.999335 -19.18
7.04000000 0.044014 75.649 0.998699 -15.95 0.025732 68.153
           0.998699 -15.95 0.043873 73.310 0.025971 79.126
           0.025732 68.153 0.025971 79.126 0.999331 -19.24
7.06000000 0.044136 75.608 0.998692 -15.99 0.025805 68.091
           0.998692 -15.99 0.043994 73.263 0.026046 79.095
           0.025805 68.091 0.026046 79.095 0.999328 -19.29
!< P1 F=7.06 Eeff=(7.47591648 0.0) Z0=(59.3560607 0.0) R=0.0 C=0.00433329 
!< P2 F=7.06 Eeff=(7.62771927 0.0) Z0=(57.1655587 0.0) R=0.0 C=0.00427573 
!< P3 F=7.06 Eeff=(7.40482741 0.0) Z0=(61.4164813 0.0) R=0.0 C=0.00441634 
7.08000000 0.044259 75.568 0.998685 -16.04 0.025878 68.028
           0.998685 -16.04 0.044116 73.216 0.026121 79.063
           0.025878 68.028 0.026121 79.063 0.999324 -19.35
7.10000000 0.044381 75.527 0.998678 -16.08 0.025951 67.966
           0.998678 -16.08 0.044237 73.168 0.026197 79.032
           0.025951 67.966 0.026197 79.032 0.999320 -19.40
7.12000000 0.044503 75.486 0.998670 -16.13 0.026025 67.904
           0.998670 -16.13 0.044358 73.121 0.026272 79.000
           0.026025 67.904 0.026272 79.000 0.999316 -19.46
7.14000000 0.044626 75.445 0.998663 -16.17 0.026098 67.841
           0.998663 -16.17 0.044479 73.074 0.026347 78.968
           0.026098 67.841 0.026347 78.968 0.999312 -19.51
7.16000000 0.044748 75.405 0.998655 -16.22 0.026171 67.779
           0.998655 -16.22 0.044600 73.026 0.026423 78.937
           0.026171 67.779 0.026423 78.937 0.999308 -19.57
7.18000000 0.044870 75.364 0.998648 -16.26 0.026244 67.717
           0.998648 -16.26 0.044721 72.979 0.026498 78.905
           0.026244 67.717 0.026498 78.905 0.999304 -19.62
7.20000000 0.044993 75.323 0.998641 -16.31 0.026318 67.655
           0.998641 -16.31 0.044842 72.932 0.026573 78.873
           0.026318 67.655 0.026573 78.873 0.999300 -19.68
7.22000000 0.045115 75.283 0.998633 -16.35 0.026391 67.592
           0.998633 -16.35 0.044963 72.884 0.026649 78.842
           0.026391 67.592 0.026649 78.842 0.999296 -19.73
7.24000000 0.045237 75.242 0.998626 -16.40 0.026464 67.530
           0.998626 -16.40 0.045084 72.837 0.026724 78.810
           0.026464 67.530 0.026724 78.810 0.999293 -19.79