! Sonnet Data File
! From: em Version : 15.52
! From Project: CPW_gap_coupler_3port_1um_FL_TS_6um_finer
! Data is De-embedded 
! Data File Written: 08/14/2018 18:07:51
!< HDATE 08/14/2018 17:46:56
!< MDATE 08/14/2018 17:46:56
!< PARAMS
!< gap = 2.0
!< cpwS = 5.0
!< cpwS1 = 5.0
!< feedW = 12.0
!< feedS1 = 5.0
!< cond_length = 444.0
!< inner_length = 426.0
!< hangerW = 12.0000175
!< open_gap = 22.0
!< coupler_length = 450.0
!< END PARAMS
# GHZ S MA R 50.00000
4.00000000 0.007766 84.108 0.999847 -9.233 0.015667 76.443
           0.999847 -9.233 0.007730 79.224 0.015685 82.280
           0.015667 76.443 0.015685 82.280 0.999754 -12.48
!< P1 F=4.0 Eeff=(8.78704973 0.0) Z0=(48.6608892 0.0) R=0.0 C=0.00428958 
!< P2 F=4.0 Eeff=(8.7855435 0.0) Z0=(48.6548225 0.0) R=0.0 C=0.00428951 
!< P3 F=4.0 Eeff=(8.02645299 0.0) Z0=(53.0198539 0.0) R=0.0 C=0.00476238 
4.02000000 0.007805 84.078 0.999846 -9.280 0.015745 76.375
           0.999846 -9.280 0.007769 79.170 0.015763 82.242
           0.015745 76.375 0.015763 82.242 0.999752 -12.54
4.04000000 0.007844 84.048 0.999844 -9.326 0.015824 76.308
           0.999844 -9.326 0.007807 79.116 0.015842 82.203
           0.015824 76.308 0.015842 82.203 0.999749 -12.61
4.06000000 0.007882 84.019 0.999842 -9.372 0.015902 76.240
           0.999842 -9.372 0.007845 79.062 0.015920 82.164
           0.015902 76.240 0.015920 82.164 0.999747 -12.67
4.08000000 0.007921 83.989 0.999841 -9.418 0.015980 76.172
           0.999841 -9.418 0.007884 79.008 0.015999 82.125
           0.015980 76.172 0.015999 82.125 0.999744 -12.73
4.10000000 0.007960 83.960 0.999839 -9.464 0.016058 76.104
           0.999839 -9.464 0.007922 78.955 0.016077 82.087
           0.016058 76.104 0.016077 82.087 0.999742 -12.79
4.12000000 0.007999 83.930 0.999838 -9.510 0.016136 76.036
           0.999838 -9.510 0.007961 78.901 0.016156 82.048
           0.016136 76.036 0.016156 82.048 0.999739 -12.86
4.14000000 0.008038 83.900 0.999836 -9.557 0.016215 75.969
           0.999836 -9.557 0.007999 78.847 0.016234 82.009
           0.016215 75.969 0.016234 82.009 0.999737 -12.92
4.16000000 0.008077 83.871 0.999835 -9.603 0.016293 75.901
           0.999835 -9.603 0.008037 78.793 0.016313 81.971
           0.016293 75.901 0.016313 81.971 0.999734 -12.98
4.18000000 0.008116 83.841 0.999833 -9.649 0.016371 75.833
           0.999833 -9.649 0.008076 78.739 0.016391 81.932
           0.016371 75.833 0.016391 81.932 0.999732 -13.04
4.20000000 0.008155 83.811 0.999831 -9.695 0.016449 75.765
           0.999831 -9.695 0.008114 78.685 0.016470 81.893
           0.016449 75.765 0.016470 81.893 0.999729 -13.11
4.22000000 0.008194 83.782 0.999830 -9.741 0.016527 75.697
           0.999830 -9.741 0.008152 78.631 0.016548 81.854
           0.016527 75.697 0.016548 81.854 0.999726 -13.17
4.24000000 0.008233 83.752 0.999828 -9.787 0.016606 75.630
           0.999828 -9.787 0.008191 78.578 0.016627 81.816
           0.016606 75.630 0.016627 81.816 0.999724 -13.23
4.26000000 0.008272 83.722 0.999827 -9.834 0.016684 75.562
           0.999827 -9.834 0.008229 78.524 0.016705 81.777
           0.016684 75.562 0.016705 81.777 0.999721 -13.29
4.28000000 0.008311 83.693 0.999825 -9.880 0.016762 75.494
           0.999825 -9.880 0.008267 78.470 0.016784 81.738
           0.016762 75.494 0.016784 81.738 0.999719 -13.36
4.30000000 0.008350 83.663 0.999823 -9.926 0.016840 75.426
           0.999823 -9.926 0.008306 78.416 0.016862 81.700
           0.016840 75.426 0.016862 81.700 0.999716 -13.42
4.32000000 0.008389 83.633 0.999822 -9.972 0.016918 75.358
           0.999822 -9.972 0.008344 78.362 0.016941 81.661
           0.016918 75.358 0.016941 81.661 0.999713 -13.48
4.34000000 0.008428 83.604 0.999820 -10.02 0.016997 75.291
           0.999820 -10.02 0.008382 78.308 0.017019 81.622
           0.016997 75.291 0.017019 81.622 0.999711 -13.54
4.36000000 0.008466 83.574 0.999818 -10.06 0.017075 75.223
           0.999818 -10.06 0.008421 78.254 0.017098 81.583
           0.017075 75.223 0.017098 81.583 0.999708 -13.61
4.38000000 0.008505 83.544 0.999817 -10.11 0.017153 75.155
           0.999817 -10.11 0.008459 78.200 0.017176 81.545
           0.017153 75.155 0.017176 81.545 0.999705 -13.67
4.40000000 0.008544 83.515 0.999815 -10.16 0.017231 75.087
           0.999815 -10.16 0.008497 78.147 0.017255 81.506
           0.017231 75.087 0.017255 81.506 0.999703 -13.73
4.42000000 0.008583 83.485 0.999813 -10.20 0.017309 75.019
           0.999813 -10.20 0.008536 78.093 0.017333 81.467
           0.017309 75.019 0.017333 81.467 0.999700 -13.79
4.44000000 0.008622 83.455 0.999812 -10.25 0.017388 74.951
           0.999812 -10.25 0.008574 78.039 0.017412 81.429
           0.017388 74.951 0.017412 81.429 0.999697 -13.86
4.46000000 0.008661 83.426 0.999810 -10.30 0.017466 74.884
           0.999810 -10.30 0.008612 77.985 0.017490 81.390
           0.017466 74.884 0.017490 81.390 0.999694 -13.92
4.48000000 0.008700 83.396 0.999808 -10.34 0.017544 74.816
           0.999808 -10.34 0.008650 77.931 0.017569 81.351
           0.017544 74.816 0.017569 81.351 0.999692 -13.98
4.50000000 0.008739 83.366 0.999807 -10.39 0.017622 74.748
           0.999807 -10.39 0.008689 77.877 0.017647 81.312
           0.017622 74.748 0.017647 81.312 0.999689 -14.05
4.52000000 0.008778 83.337 0.999805 -10.43 0.017700 74.680
           0.999805 -10.43 0.008727 77.823 0.017726 81.274
           0.017700 74.680 0.017726 81.274 0.999686 -14.11
4.54000000 0.008817 83.307 0.999803 -10.48 0.017779 74.612
           0.999803 -10.48 0.008765 77.769 0.017804 81.235
           0.017779 74.612 0.017804 81.235 0.999683 -14.17
4.56000000 0.008856 83.277 0.999801 -10.53 0.017857 74.544
           0.999801 -10.53 0.008804 77.716 0.017883 81.196
           0.017857 74.544 0.017883 81.196 0.999681 -14.23
4.58000000 0.008895 83.248 0.999800 -10.57 0.017935 74.476
           0.999800 -10.57 0.008842 77.662 0.017961 81.157
           0.017935 74.476 0.017961 81.157 0.999678 -14.30
4.60000000 0.008934 83.218 0.999798 -10.62 0.018013 74.409
           0.999798 -10.62 0.008880 77.608 0.018040 81.119
           0.018013 74.409 0.018040 81.119 0.999675 -14.36
4.62000000 0.008973 83.188 0.999796 -10.66 0.018091 74.341
           0.999796 -10.66 0.008918 77.554 0.018118 81.080
           0.018091 74.341 0.018118 81.080 0.999672 -14.42
4.64000000 0.009012 83.158 0.999794 -10.71 0.018169 74.273
           0.999794 -10.71 0.008957 77.500 0.018197 81.041
           0.018169 74.273 0.018197 81.041 0.999669 -14.48
4.66000000 0.009051 83.129 0.999793 -10.76 0.018248 74.205
           0.999793 -10.76 0.008995 77.446 0.018275 81.003
           0.018248 74.205 0.018275 81.003 0.999666 -14.55
4.68000000 0.009090 83.099 0.999791 -10.80 0.018326 74.137
           0.999791 -10.80 0.009033 77.392 0.018354 80.964
           0.018326 74.137 0.018354 80.964 0.999664 -14.61
4.70000000 0.009129 83.069 0.999789 -10.85 0.018404 74.069
           0.999789 -10.85 0.009071 77.338 0.018432 80.925
           0.018404 74.069 0.018432 80.925 0.999661 -14.67
4.72000000 0.009168 83.040 0.999787 -10.90 0.018482 74.001
           0.999787 -10.90 0.009110 77.285 0.018511 80.886
           0.018482 74.001 0.018511 80.886 0.999658 -14.73
4.74000000 0.009207 83.010 0.999785 -10.94 0.018560 73.934
           0.999785 -10.94 0.009148 77.231 0.018589 80.848
           0.018560 73.934 0.018589 80.848 0.999655 -14.80
4.76000000 0.009245 82.980 0.999784 -10.99 0.018638 73.866
           0.999784 -10.99 0.009186 77.177 0.018668 80.809
           0.018638 73.866 0.018668 80.809 0.999652 -14.86
4.78000000 0.009284 82.950 0.999782 -11.03 0.018717 73.798
           0.999782 -11.03 0.009224 77.123 0.018746 80.770
           0.018717 73.798 0.018746 80.770 0.999649 -14.92
4.80000000 0.009323 82.921 0.999780 -11.08 0.018795 73.730
           0.999780 -11.08 0.009262 77.069 0.018825 80.731
           0.018795 73.730 0.018825 80.731 0.999646 -14.98
4.82000000 0.009362 82.891 0.999778 -11.13 0.018873 73.662
           0.999778 -11.13 0.009301 77.015 0.018904 80.693
           0.018873 73.662 0.018904 80.693 0.999643 -15.05
4.84000000 0.009401 82.861 0.999776 -11.17 0.018951 73.594
           0.999776 -11.17 0.009339 76.961 0.018982 80.654
           0.018951 73.594 0.018982 80.654 0.999640 -15.11
4.86000000 0.009440 82.831 0.999774 -11.22 0.019029 73.526
           0.999774 -11.22 0.009377 76.907 0.019061 80.615
           0.019029 73.526 0.019061 80.615 0.999637 -15.17
4.88000000 0.009479 82.802 0.999773 -11.26 0.019107 73.459
           0.999773 -11.26 0.009415 76.853 0.019139 80.576
           0.019107 73.459 0.019139 80.576 0.999634 -15.23
4.90000000 0.009518 82.772 0.999771 -11.31 0.019185 73.391
           0.999771 -11.31 0.009453 76.800 0.019218 80.538
           0.019185 73.391 0.019218 80.538 0.999631 -15.30
4.92000000 0.009557 82.742 0.999769 -11.36 0.019264 73.323
           0.999769 -11.36 0.009492 76.746 0.019296 80.499
           0.019264 73.323 0.019296 80.499 0.999628 -15.36
4.94000000 0.009596 82.712 0.999767 -11.40 0.019342 73.255
           0.999767 -11.40 0.009530 76.692 0.019375 80.460
           0.019342 73.255 0.019375 80.460 0.999625 -15.42
4.96000000 0.009635 82.683 0.999765 -11.45 0.019420 73.187
           0.999765 -11.45 0.009568 76.638 0.019453 80.421
           0.019420 73.187 0.019453 80.421 0.999622 -15.48
4.98000000 0.009674 82.653 0.999763 -11.50 0.019498 73.119
           0.999763 -11.50 0.009606 76.584 0.019532 80.383
           0.019498 73.119 0.019532 80.383 0.999619 -15.55
5.00000000 0.009713 82.623 0.999761 -11.54 0.019576 73.051
           0.999761 -11.54 0.009644 76.530 0.019610 80.344
           0.019576 73.051 0.019610 80.344 0.999616 -15.61
5.02000000 0.009752 82.593 0.999759 -11.59 0.019654 72.984
           0.999759 -11.59 0.009682 76.476 0.019689 80.305
           0.019654 72.984 0.019689 80.305 0.999613 -15.67
5.04000000 0.009791 82.564 0.999757 -11.63 0.019732 72.916
           0.999757 -11.63 0.009721 76.422 0.019767 80.266
           0.019732 72.916 0.019767 80.266 0.999610 -15.73
5.06000000 0.009830 82.534 0.999755 -11.68 0.019811 72.848
           0.999755 -11.68 0.009759 76.369 0.019846 80.228
           0.019811 72.848 0.019846 80.228 0.999607 -15.80
5.08000000 0.009869 82.504 0.999754 -11.73 0.019889 72.780
           0.999754 -11.73 0.009797 76.315 0.019924 80.189
           0.019889 72.780 0.019924 80.189 0.999604 -15.86
5.10000000 0.009908 82.474 0.999752 -11.77 0.019967 72.712
           0.999752 -11.77 0.009835 76.261 0.020003 80.150
           0.019967 72.712 0.020003 80.150 0.999601 -15.92
5.12000000 0.009947 82.445 0.999750 -11.82 0.020045 72.644
           0.999750 -11.82 0.009873 76.207 0.020082 80.111
           0.020045 72.644 0.020082 80.111 0.999597 -15.98
5.14000000 0.009986 82.415 0.999748 -11.86 0.020123 72.576
           0.999748 -11.86 0.009911 76.153 0.020160 80.073
           0.020123 72.576 0.020160 80.073 0.999594 -16.05
5.16000000 0.010025 82.385 0.999746 -11.91 0.020201 72.508
           0.999746 -11.91 0.009949 76.099 0.020239 80.034
           0.020201 72.508 0.020239 80.034 0.999591 -16.11
5.18000000 0.010064 82.355 0.999744 -11.96 0.020279 72.441
           0.999744 -11.96 0.009987 76.045 0.020317 79.995
           0.020279 72.441 0.020317 79.995 0.999588 -16.17
5.20000000 0.010103 82.325 0.999742 -12.00 0.020357 72.373
           0.999742 -12.00 0.010026 75.991 0.020396 79.956
           0.020357 72.373 0.020396 79.956 0.999585 -16.23
5.22000000 0.010142 82.296 0.999740 -12.05 0.020436 72.305
           0.999740 -12.05 0.010064 75.937 0.020474 79.918
           0.020436 72.305 0.020474 79.918 0.999582 -16.30
5.24000000 0.010181 82.266 0.999738 -12.10 0.020514 72.237
           0.999738 -12.10 0.010102 75.884 0.020553 79.879
           0.020514 72.237 0.020553 79.879 0.999578 -16.36
5.26000000 0.010220 82.236 0.999736 -12.14 0.020592 72.169
           0.999736 -12.14 0.010140 75.830 0.020631 79.840
           0.020592 72.169 0.020631 79.840 0.999575 -16.42
5.28000000 0.010259 82.206 0.999734 -12.19 0.020670 72.101
           0.999734 -12.19 0.010178 75.776 0.020710 79.801
           0.020670 72.101 0.020710 79.801 0.999572 -16.48
5.30000000 0.010298 82.176 0.999732 -12.23 0.020748 72.033
           0.999732 -12.23 0.010216 75.722 0.020789 79.763
           0.020748 72.033 0.020789 79.763 0.999569 -16.55
5.32000000 0.010337 82.147 0.999730 -12.28 0.020826 71.965
           0.999730 -12.28 0.010254 75.668 0.020867 79.724
           0.020826 71.965 0.020867 79.724 0.999565 -16.61
5.34000000 0.010376 82.117 0.999728 -12.33 0.020904 71.897
           0.999728 -12.33 0.010292 75.614 0.020946 79.685
           0.020904 71.897 0.020946 79.685 0.999562 -16.67
5.36000000 0.010415 82.087 0.999726 -12.37 0.020982 71.830
           0.999726 -12.37 0.010330 75.560 0.021024 79.646
           0.020982 71.830 0.021024 79.646 0.999559 -16.74
5.38000000 0.010454 82.057 0.999724 -12.42 0.021060 71.762
           0.999724 -12.42 0.010368 75.506 0.021103 79.607
           0.021060 71.762 0.021103 79.607 0.999555 -16.80
5.40000000 0.010493 82.027 0.999721 -12.46 0.021138 71.694
           0.999721 -12.46 0.010406 75.453 0.021181 79.569
           0.021138 71.694 0.021181 79.569 0.999552 -16.86
5.42000000 0.010532 81.997 0.999719 -12.51 0.021217 71.626
           0.999719 -12.51 0.010444 75.399 0.021260 79.530
           0.021217 71.626 0.021260 79.530 0.999549 -16.92
5.44000000 0.010571 81.968 0.999717 -12.56 0.021295 71.558
           0.999717 -12.56 0.010482 75.345 0.021338 79.491
           0.021295 71.558 0.021338 79.491 0.999546 -16.99
5.46000000 0.010610 81.938 0.999715 -12.60 0.021373 71.490
           0.999715 -12.60 0.010520 75.291 0.021417 79.452
           0.021373 71.490 0.021417 79.452 0.999542 -17.05
5.48000000 0.010649 81.908 0.999713 -12.65 0.021451 71.422
           0.999713 -12.65 0.010558 75.237 0.021496 79.413
           0.021451 71.422 0.021496 79.413 0.999539 -17.11
5.50000000 0.010688 81.878 0.999711 -12.70 0.021529 71.354
           0.999711 -12.70 0.010597 75.183 0.021574 79.375
           0.021529 71.354 0.021574 79.375 0.999535 -17.17
5.52000000 0.010727 81.848 0.999709 -12.74 0.021607 71.286
           0.999709 -12.74 0.010635 75.129 0.021653 79.336
           0.021607 71.286 0.021653 79.336 0.999532 -17.24
5.54000000 0.010766 81.818 0.999707 -12.79 0.021685 71.219
           0.999707 -12.79 0.010673 75.075 0.021731 79.297
           0.021685 71.219 0.021731 79.297 0.999529 -17.30
5.56000000 0.010805 81.789 0.999705 -12.83 0.021763 71.151
           0.999705 -12.83 0.010711 75.021 0.021810 79.258
           0.021763 71.151 0.021810 79.258 0.999525 -17.36
5.58000000 0.010844 81.759 0.999703 -12.88 0.021841 71.083
           0.999703 -12.88 0.010749 74.968 0.021888 79.219
           0.021841 71.083 0.021888 79.219 0.999522 -17.42
5.60000000 0.010883 81.729 0.999701 -12.93 0.021919 71.015
           0.999701 -12.93 0.010787 74.914 0.021967 79.181
           0.021919 71.015 0.021967 79.181 0.999518 -17.49
5.62000000 0.010922 81.699 0.999698 -12.97 0.021997 70.947
           0.999698 -12.97 0.010825 74.860 0.022046 79.142
           0.021997 70.947 0.022046 79.142 0.999515 -17.55
!< P1 F=5.62 Eeff=(8.78707024 0.0) Z0=(48.6609342 0.0) R=0.0 C=0.00428958 
!< P2 F=5.62 Eeff=(8.78556398 0.0) Z0=(48.6548675 0.0) R=0.0 C=0.00428951 
!< P3 F=5.62 Eeff=(8.02648321 0.0) Z0=(53.0198578 0.0) R=0.0 C=0.00476239 
5.64000000 0.010961 81.669 0.999696 -13.02 0.022075 70.879
           0.999696 -13.02 0.010863 74.806 0.022124 79.103
           0.022075 70.879 0.022124 79.103 0.999511 -17.61
5.66000000 0.011000 81.639 0.999694 -13.06 0.022153 70.811
           0.999694 -13.06 0.010901 74.752 0.022203 79.064
           0.022153 70.811 0.022203 79.064 0.999508 -17.67
5.68000000 0.011039 81.609 0.999692 -13.11 0.022232 70.743
           0.999692 -13.11 0.010938 74.698 0.022281 79.025
           0.022232 70.743 0.022281 79.025 0.999505 -17.74
5.70000000 0.011078 81.580 0.999690 -13.16 0.022310 70.675
           0.999690 -13.16 0.010976 74.644 0.022360 78.987
           0.022310 70.675 0.022360 78.987 0.999501 -17.80
5.72000000 0.011117 81.550 0.999688 -13.20 0.022388 70.607
           0.999688 -13.20 0.011014 74.590 0.022438 78.948
           0.022388 70.607 0.022438 78.948 0.999498 -17.86
5.74000000 0.011156 81.520 0.999685 -13.25 0.022466 70.540
           0.999685 -13.25 0.011052 74.537 0.022517 78.909
           0.022466 70.540 0.022517 78.909 0.999494 -17.92
5.76000000 0.011195 81.490 0.999683 -13.30 0.022544 70.472
           0.999683 -13.30 0.011090 74.483 0.022596 78.870
           0.022544 70.472 0.022596 78.870 0.999490 -17.99
5.78000000 0.011234 81.460 0.999681 -13.34 0.022622 70.404
           0.999681 -13.34 0.011128 74.429 0.022674 78.831
           0.022622 70.404 0.022674 78.831 0.999487 -18.05
5.80000000 0.011274 81.430 0.999679 -13.39 0.022700 70.336
           0.999679 -13.39 0.011166 74.375 0.022753 78.793
           0.022700 70.336 0.022753 78.793 0.999483 -18.11
5.82000000 0.011313 81.400 0.999677 -13.43 0.022778 70.268
           0.999677 -13.43 0.011204 74.321 0.022831 78.754
           0.022778 70.268 0.022831 78.754 0.999480 -18.18
5.84000000 0.011352 81.370 0.999674 -13.48 0.022856 70.200
           0.999674 -13.48 0.011242 74.267 0.022910 78.715
           0.022856 70.200 0.022910 78.715 0.999476 -18.24
5.86000000 0.011391 81.340 0.999672 -13.53 0.022934 70.132
           0.999672 -13.53 0.011280 74.213 0.022989 78.676
           0.022934 70.132 0.022989 78.676 0.999473 -18.30
5.88000000 0.011430 81.311 0.999670 -13.57 0.023012 70.064
           0.999670 -13.57 0.011318 74.159 0.023067 78.637
           0.023012 70.064 0.023067 78.637 0.999469 -18.36
5.90000000 0.011469 81.281 0.999668 -13.62 0.023090 69.996
           0.999668 -13.62 0.011356 74.105 0.023146 78.598
           0.023090 69.996 0.023146 78.598 0.999465 -18.43
5.92000000 0.011508 81.251 0.999665 -13.66 0.023168 69.928
           0.999665 -13.66 0.011394 74.052 0.023224 78.560
           0.023168 69.928 0.023224 78.560 0.999462 -18.49
5.94000000 0.011547 81.221 0.999663 -13.71 0.023246 69.861
           0.999663 -13.71 0.011432 73.998 0.023303 78.521
           0.023246 69.861 0.023303 78.521 0.999458 -18.55
5.96000000 0.011586 81.191 0.999661 -13.76 0.023324 69.793
           0.999661 -13.76 0.011470 73.944 0.023382 78.482
           0.023324 69.793 0.023382 78.482 0.999454 -18.61
5.98000000 0.011625 81.161 0.999659 -13.80 0.023402 69.725
           0.999659 -13.80 0.011507 73.890 0.023460 78.443
           0.023402 69.725 0.023460 78.443 0.999451 -18.68
6.00000000 0.011664 81.131 0.999656 -13.85 0.023480 69.657
           0.999656 -13.85 0.011545 73.836 0.023539 78.404
           0.023480 69.657 0.023539 78.404 0.999447 -18.74
6.02000000 0.011703 81.101 0.999654 -13.90 0.023558 69.589
           0.999654 -13.90 0.011583 73.782 0.023617 78.365
           0.023558 69.589 0.023617 78.365 0.999443 -18.80
6.04000000 0.011742 81.071 0.999652 -13.94 0.023636 69.521
           0.999652 -13.94 0.011621 73.728 0.023696 78.326
           0.023636 69.521 0.023696 78.326 0.999440 -18.86
6.06000000 0.011781 81.041 0.999649 -13.99 0.023714 69.453
           0.999649 -13.99 0.011659 73.674 0.023775 78.288
           0.023714 69.453 0.023775 78.288 0.999436 -18.93
6.08000000 0.011820 81.011 0.999647 -14.03 0.023792 69.385
           0.999647 -14.03 0.011697 73.621 0.023853 78.249
           0.023792 69.385 0.023853 78.249 0.999432 -18.99
6.10000000 0.011859 80.981 0.999645 -14.08 0.023870 69.317
           0.999645 -14.08 0.011735 73.567 0.023932 78.210
           0.023870 69.317 0.023932 78.210 0.999429 -19.05
6.12000000 0.011898 80.951 0.999642 -14.13 0.023948 69.249
           0.999642 -14.13 0.011772 73.513 0.024010 78.171
           0.023948 69.249 0.024010 78.171 0.999425 -19.11
6.14000000 0.011937 80.921 0.999640 -14.17 0.024026 69.181
           0.999640 -14.17 0.011810 73.459 0.024089 78.132
           0.024026 69.181 0.024089 78.132 0.999421 -19.18
6.16000000 0.011977 80.892 0.999638 -14.22 0.024104 69.114
           0.999638 -14.22 0.011848 73.405 0.024168 78.093
           0.024104 69.114 0.024168 78.093 0.999417 -19.24
6.18000000 0.012016 80.862 0.999635 -14.26 0.024182 69.046
           0.999635 -14.26 0.011886 73.351 0.024246 78.054
           0.024182 69.046 0.024246 78.054 0.999413 -19.30
6.20000000 0.012055 80.832 0.999633 -14.31 0.024260 68.978
           0.999633 -14.31 0.011924 73.297 0.024325 78.016
           0.024260 68.978 0.024325 78.016 0.999410 -19.37
6.22000000 0.012094 80.802 0.999631 -14.36 0.024338 68.910
           0.999631 -14.36 0.011962 73.243 0.024403 77.977
           0.024338 68.910 0.024403 77.977 0.999406 -19.43
6.24000000 0.012133 80.772 0.999628 -14.40 0.024416 68.842
           0.999628 -14.40 0.011999 73.190 0.024482 77.938
           0.024416 68.842 0.024482 77.938 0.999402 -19.49
6.26000000 0.012172 80.742 0.999626 -14.45 0.024494 68.774
           0.999626 -14.45 0.012037 73.136 0.024561 77.899
           0.024494 68.774 0.024561 77.899 0.999398 -19.55
6.28000000 0.012211 80.712 0.999623 -14.50 0.024572 68.706
           0.999623 -14.50 0.012075 73.082 0.024639 77.860
           0.024572 68.706 0.024639 77.860 0.999394 -19.62
6.30000000 0.012250 80.682 0.999621 -14.54 0.024650 68.638
           0.999621 -14.54 0.012113 73.028 0.024718 77.821
           0.024650 68.638 0.024718 77.821 0.999391 -19.68
6.32000000 0.012289 80.652 0.999619 -14.59 0.024728 68.570
           0.999619 -14.59 0.012151 72.974 0.024796 77.782
           0.024728 68.570 0.024796 77.782 0.999387 -19.74
6.34000000 0.012328 80.622 0.999616 -14.63 0.024806 68.502
           0.999616 -14.63 0.012188 72.920 0.024875 77.743
           0.024806 68.502 0.024875 77.743 0.999383 -19.80
6.36000000 0.012367 80.592 0.999614 -14.68 0.024884 68.434
           0.999614 -14.68 0.012226 72.866 0.024954 77.705
           0.024884 68.434 0.024954 77.705 0.999379 -19.87
6.38000000 0.012406 80.562 0.999611 -14.73 0.024962 68.366
           0.999611 -14.73 0.012264 72.812 0.025032 77.666
           0.024962 68.366 0.025032 77.666 0.999375 -19.93
6.40000000 0.012446 80.532 0.999609 -14.77 0.025040 68.299
           0.999609 -14.77 0.012302 72.759 0.025111 77.627
           0.025040 68.299 0.025111 77.627 0.999371 -19.99
6.42000000 0.012485 80.502 0.999607 -14.82 0.025118 68.231
           0.999607 -14.82 0.012339 72.705 0.025190 77.588
           0.025118 68.231 0.025190 77.588 0.999367 -20.06
6.44000000 0.012524 80.472 0.999604 -14.86 0.025196 68.163
           0.999604 -14.86 0.012377 72.651 0.025268 77.549
           0.025196 68.163 0.025268 77.549 0.999363 -20.12
6.46000000 0.012563 80.442 0.999602 -14.91 0.025274 68.095
           0.999602 -14.91 0.012415 72.597 0.025347 77.510
           0.025274 68.095 0.025347 77.510 0.999359 -20.18
6.48000000 0.012602 80.412 0.999599 -14.96 0.025352 68.027
           0.999599 -14.96 0.012453 72.543 0.025425 77.471
           0.025352 68.027 0.025425 77.471 0.999355 -20.24
6.50000000 0.012641 80.382 0.999597 -15.00 0.025430 67.959
           0.999597 -15.00 0.012490 72.489 0.025504 77.432
           0.025430 67.959 0.025504 77.432 0.999351 -20.31
6.52000000 0.012680 80.352 0.999594 -15.05 0.025508 67.891
           0.999594 -15.05 0.012528 72.435 0.025583 77.393
           0.025508 67.891 0.025583 77.393 0.999347 -20.37
6.54000000 0.012719 80.322 0.999592 -15.10 0.025586 67.823
           0.999592 -15.10 0.012566 72.381 0.025661 77.355
           0.025586 67.823 0.025661 77.355 0.999343 -20.43
6.56000000 0.012758 80.292 0.999589 -15.14 0.025664 67.755
           0.999589 -15.14 0.012604 72.328 0.025740 77.316
           0.025664 67.755 0.025740 77.316 0.999339 -20.49
6.58000000 0.012797 80.262 0.999587 -15.19 0.025742 67.687
           0.999587 -15.19 0.012641 72.274 0.025819 77.277
           0.025742 67.687 0.025819 77.277 0.999335 -20.56
6.60000000 0.012837 80.232 0.999584 -15.23 0.025820 67.619
           0.999584 -15.23 0.012679 72.220 0.025897 77.238
           0.025820 67.619 0.025897 77.238 0.999331 -20.62
6.62000000 0.012876 80.202 0.999582 -15.28 0.025897 67.551
           0.999582 -15.28 0.012717 72.166 0.025976 77.199
           0.025897 67.551 0.025976 77.199 0.999327 -20.68
6.64000000 0.012915 80.172 0.999579 -15.33 0.025975 67.483
           0.999579 -15.33 0.012754 72.112 0.026055 77.160
           0.025975 67.483 0.026055 77.160 0.999323 -20.74
6.66000000 0.012954 80.141 0.999577 -15.37 0.026053 67.415
           0.999577 -15.37 0.012792 72.058 0.026133 77.121
           0.026053 67.415 0.026133 77.121 0.999319 -20.81
6.68000000 0.012993 80.111 0.999574 -15.42 0.026131 67.347
           0.999574 -15.42 0.012830 72.004 0.026212 77.082
           0.026131 67.347 0.026212 77.082 0.999315 -20.87
6.70000000 0.013032 80.081 0.999572 -15.47 0.026209 67.280
           0.999572 -15.47 0.012867 71.950 0.026290 77.043
           0.026209 67.280 0.026290 77.043 0.999311 -20.93
6.72000000 0.013071 80.051 0.999569 -15.51 0.026287 67.212
           0.999569 -15.51 0.012905 71.897 0.026369 77.004
           0.026287 67.212 0.026369 77.004 0.999307 -21.00
6.74000000 0.013110 80.021 0.999566 -15.56 0.026365 67.144
           0.999566 -15.56 0.012943 71.843 0.026448 76.965
           0.026365 67.144 0.026448 76.965 0.999302 -21.06
6.76000000 0.013149 79.991 0.999564 -15.60 0.026443 67.076
           0.999564 -15.60 0.012980 71.789 0.026526 76.926
           0.026443 67.076 0.026526 76.926 0.999298 -21.12
6.78000000 0.013189 79.961 0.999561 -15.65 0.026521 67.008
           0.999561 -15.65 0.013018 71.735 0.026605 76.888
           0.026521 67.008 0.026605 76.888 0.999294 -21.18
6.80000000 0.013228 79.931 0.999559 -15.70 0.026599 66.940
           0.999559 -15.70 0.013055 71.681 0.026684 76.849
           0.026599 66.940 0.026684 76.849 0.999290 -21.25
6.82000000 0.013267 79.901 0.999556 -15.74 0.026677 66.872
           0.999556 -15.74 0.013093 71.627 0.026762 76.810
           0.026677 66.872 0.026762 76.810 0.999286 -21.31
6.84000000 0.013306 79.871 0.999553 -15.79 0.026755 66.804
           0.999553 -15.79 0.013131 71.573 0.026841 76.771
           0.026755 66.804 0.026841 76.771 0.999282 -21.37
6.86000000 0.013345 79.841 0.999551 -15.83 0.026832 66.736
           0.999551 -15.83 0.013168 71.520 0.026920 76.732
           0.026832 66.736 0.026920 76.732 0.999277 -21.43
6.88000000 0.013384 79.811 0.999548 -15.88 0.026910 66.668
           0.999548 -15.88 0.013206 71.466 0.026998 76.693
           0.026910 66.668 0.026998 76.693 0.999273 -21.50
6.90000000 0.013423 79.781 0.999546 -15.93 0.026988 66.600
           0.999546 -15.93 0.013243 71.412 0.027077 76.654
           0.026988 66.600 0.027077 76.654 0.999269 -21.56
6.92000000 0.013463 79.751 0.999543 -15.97 0.027066 66.532
           0.999543 -15.97 0.013281 71.358 0.027156 76.615
           0.027066 66.532 0.027156 76.615 0.999265 -21.62
6.94000000 0.013502 79.720 0.999540 -16.02 0.027144 66.464
           0.999540 -16.02 0.013319 71.304 0.027234 76.576
           0.027144 66.464 0.027234 76.576 0.999260 -21.69
6.96000000 0.013541 79.690 0.999538 -16.06 0.027222 66.396
           0.999538 -16.06 0.013356 71.250 0.027313 76.537
           0.027222 66.396 0.027313 76.537 0.999256 -21.75
6.98000000 0.013580 79.660 0.999535 -16.11 0.027300 66.328
           0.999535 -16.11 0.013394 71.196 0.027392 76.498
           0.027300 66.328 0.027392 76.498 0.999252 -21.81
7.00000000 0.013619 79.630 0.999532 -16.16 0.027378 66.260
           0.999532 -16.16 0.013431 71.142 0.027470 76.459
           0.027378 66.260 0.027470 76.459 0.999248 -21.87
7.02000000 0.013658 79.600 0.999530 -16.20 0.027456 66.192
           0.999530 -16.20 0.013469 71.089 0.027549 76.420
           0.027456 66.192 0.027549 76.420 0.999243 -21.94
7.04000000 0.013697 79.570 0.999527 -16.25 0.027533 66.124
           0.999527 -16.25 0.013506 71.035 0.027628 76.381
           0.027533 66.124 0.027628 76.381 0.999239 -22.00
!< P1 F=7.04 Eeff=(8.78709374 0.0) Z0=(48.6609857 0.0) R=0.0 C=0.00428958 
!< P2 F=7.04 Eeff=(8.78558746 0.0) Z0=(48.6549189 0.0) R=0.0 C=0.00428952 
!< P3 F=7.04 Eeff=(8.02651601 0.0) Z0=(53.0198558 0.0) R=0.0 C=0.0047624 
7.06000000 0.013737 79.540 0.999524 -16.30 0.027611 66.057
           0.999524 -16.30 0.013544 70.981 0.027706 76.342
           0.027611 66.057 0.027706 76.342 0.999235 -22.06
7.08000000 0.013776 79.510 0.999522 -16.34 0.027689 65.989
           0.999522 -16.34 0.013582 70.927 0.027785 76.303
           0.027689 65.989 0.027785 76.303 0.999230 -22.12
7.10000000 0.013815 79.479 0.999519 -16.39 0.027767 65.921
           0.999519 -16.39 0.013619 70.873 0.027864 76.264
           0.027767 65.921 0.027864 76.264 0.999226 -22.19
7.12000000 0.013854 79.449 0.999516 -16.43 0.027845 65.853
           0.999516 -16.43 0.013657 70.819 0.027942 76.225
           0.027845 65.853 0.027942 76.225 0.999222 -22.25
7.14000000 0.013893 79.419 0.999514 -16.48 0.027923 65.785
           0.999514 -16.48 0.013694 70.765 0.028021 76.186
           0.027923 65.785 0.028021 76.186 0.999217 -22.31
7.16000000 0.013932 79.389 0.999511 -16.53 0.028001 65.717
           0.999511 -16.53 0.013732 70.711 0.028100 76.147
           0.028001 65.717 0.028100 76.147 0.999213 -22.38
7.18000000 0.013971 79.359 0.999508 -16.57 0.028079 65.649
           0.999508 -16.57 0.013769 70.658 0.028178 76.108
           0.028079 65.649 0.028178 76.108 0.999208 -22.44
7.20000000 0.014011 79.329 0.999505 -16.62 0.028156 65.581
           0.999505 -16.62 0.013807 70.604 0.028257 76.069
           0.028156 65.581 0.028257 76.069 0.999204 -22.50
7.22000000 0.014050 79.299 0.999503 -16.66 0.028234 65.513
           0.999503 -16.66 0.013844 70.550 0.028336 76.030
           0.028234 65.513 0.028336 76.030 0.999200 -22.56
7.24000000 0.014089 79.268 0.999500 -16.71 0.028312 65.445
           0.999500 -16.71 0.013881 70.496 0.028414 75.992
           0.028312 65.445 0.028414 75.992 0.999195 -22.63