! Sonnet Data File
! From: em Version : 15.52
! From Project: CPW_gap_coupler_3port_1um_FL_TS_6um_finer
! Data is De-embedded 
! Data File Written: 08/14/2018 18:07:51
!< HDATE 08/14/2018 17:46:56
!< MDATE 08/14/2018 17:46:56
!< PARAMS
!< gap = 2.0
!< cpwS = 5.0
!< cpwS1 = 5.0
!< feedW = 12.0
!< feedS1 = 5.0
!< cond_length = 244.0
!< inner_length = 226.0
!< hangerW = 12.0000175
!< open_gap = 22.0
!< coupler_length = 250.0
!< END PARAMS
# GHZ S MA R 50.00000
4.00000000 0.005935 83.945 0.999947 -9.164 0.008447 82.099
           0.999947 -9.164 0.005932 78.415 0.008449 81.648
           0.008447 82.099 0.008449 81.648 0.999929 -7.428
!< P1 F=4.0 Eeff=(8.78704973 0.0) Z0=(48.6608892 0.0) R=0.0 C=0.00428958 
!< P2 F=4.0 Eeff=(8.7855435 0.0) Z0=(48.6548225 0.0) R=0.0 C=0.00428951 
!< P3 F=4.0 Eeff=(8.0276801 0.0) Z0=(53.0239587 0.0) R=0.0 C=0.00476239 
4.02000000 0.005964 83.915 0.999946 -9.210 0.008489 82.060
           0.999946 -9.210 0.005961 78.357 0.008491 81.607
           0.008489 82.060 0.008491 81.607 0.999928 -7.465
4.04000000 0.005994 83.885 0.999946 -9.256 0.008531 82.020
           0.999946 -9.256 0.005991 78.299 0.008534 81.565
           0.008531 82.020 0.008534 81.565 0.999927 -7.502
4.06000000 0.006023 83.855 0.999945 -9.302 0.008574 81.981
           0.999945 -9.302 0.006020 78.241 0.008576 81.523
           0.008574 81.981 0.008576 81.523 0.999926 -7.539
4.08000000 0.006053 83.824 0.999945 -9.348 0.008616 81.941
           0.999945 -9.348 0.006050 78.183 0.008618 81.481
           0.008616 81.941 0.008618 81.481 0.999926 -7.576
4.10000000 0.006082 83.794 0.999944 -9.393 0.008658 81.902
           0.999944 -9.393 0.006079 78.125 0.008660 81.440
           0.008658 81.902 0.008660 81.440 0.999925 -7.613
4.12000000 0.006112 83.764 0.999943 -9.439 0.008700 81.862
           0.999943 -9.439 0.006109 78.067 0.008703 81.398
           0.008700 81.862 0.008703 81.398 0.999924 -7.651
4.14000000 0.006141 83.734 0.999943 -9.485 0.008743 81.823
           0.999943 -9.485 0.006138 78.009 0.008745 81.356
           0.008743 81.823 0.008745 81.356 0.999924 -7.688
4.16000000 0.006171 83.703 0.999942 -9.531 0.008785 81.783
           0.999942 -9.531 0.006167 77.951 0.008787 81.314
           0.008785 81.783 0.008787 81.314 0.999923 -7.725
4.18000000 0.006200 83.673 0.999942 -9.577 0.008827 81.744
           0.999942 -9.577 0.006197 77.893 0.008829 81.272
           0.008827 81.744 0.008829 81.272 0.999922 -7.762
4.20000000 0.006230 83.643 0.999941 -9.622 0.008869 81.704
           0.999941 -9.622 0.006226 77.835 0.008872 81.231
           0.008869 81.704 0.008872 81.231 0.999921 -7.799
4.22000000 0.006259 83.613 0.999941 -9.668 0.008912 81.665
           0.999941 -9.668 0.006256 77.777 0.008914 81.189
           0.008912 81.665 0.008914 81.189 0.999921 -7.836
4.24000000 0.006289 83.582 0.999940 -9.714 0.008954 81.625
           0.999940 -9.714 0.006285 77.719 0.008956 81.147
           0.008954 81.625 0.008956 81.147 0.999920 -7.873
4.26000000 0.006318 83.552 0.999940 -9.760 0.008996 81.586
           0.999940 -9.760 0.006315 77.661 0.008998 81.105
           0.008996 81.586 0.008998 81.105 0.999919 -7.911
4.28000000 0.006348 83.522 0.999939 -9.806 0.009038 81.546
           0.999939 -9.806 0.006344 77.603 0.009041 81.064
           0.009038 81.546 0.009041 81.064 0.999918 -7.948
4.30000000 0.006377 83.492 0.999938 -9.852 0.009080 81.507
           0.999938 -9.852 0.006374 77.545 0.009083 81.022
           0.009080 81.507 0.009083 81.022 0.999918 -7.985
4.32000000 0.006407 83.462 0.999938 -9.897 0.009123 81.467
           0.999938 -9.897 0.006403 77.487 0.009125 80.980
           0.009123 81.467 0.009125 80.980 0.999917 -8.022
4.34000000 0.006436 83.431 0.999937 -9.943 0.009165 81.428
           0.999937 -9.943 0.006432 77.429 0.009167 80.938
           0.009165 81.428 0.009167 80.938 0.999916 -8.059
4.36000000 0.006466 83.401 0.999937 -9.989 0.009207 81.388
           0.999937 -9.989 0.006462 77.371 0.009210 80.896
           0.009207 81.388 0.009210 80.896 0.999915 -8.096
4.38000000 0.006495 83.371 0.999936 -10.03 0.009249 81.349
           0.999936 -10.03 0.006491 77.313 0.009252 80.855
           0.009249 81.349 0.009252 80.855 0.999914 -8.134
4.40000000 0.006524 83.341 0.999935 -10.08 0.009292 81.309
           0.999935 -10.08 0.006521 77.255 0.009294 80.813
           0.009292 81.309 0.009294 80.813 0.999914 -8.171
4.42000000 0.006554 83.311 0.999935 -10.13 0.009334 81.270
           0.999935 -10.13 0.006550 77.197 0.009337 80.771
           0.009334 81.270 0.009337 80.771 0.999913 -8.208
4.44000000 0.006583 83.280 0.999934 -10.17 0.009376 81.230
           0.999934 -10.17 0.006579 77.139 0.009379 80.729
           0.009376 81.230 0.009379 80.729 0.999912 -8.245
4.46000000 0.006613 83.250 0.999934 -10.22 0.009418 81.191
           0.999934 -10.22 0.006609 77.081 0.009421 80.688
           0.009418 81.191 0.009421 80.688 0.999911 -8.282
4.48000000 0.006642 83.220 0.999933 -10.26 0.009461 81.151
           0.999933 -10.26 0.006638 77.023 0.009463 80.646
           0.009461 81.151 0.009463 80.646 0.999910 -8.319
4.50000000 0.006672 83.190 0.999933 -10.31 0.009503 81.111
           0.999933 -10.31 0.006668 76.965 0.009506 80.604
           0.009503 81.111 0.009506 80.604 0.999910 -8.357
4.52000000 0.006701 83.160 0.999932 -10.36 0.009545 81.072
           0.999932 -10.36 0.006697 76.907 0.009548 80.562
           0.009545 81.072 0.009548 80.562 0.999909 -8.394
4.54000000 0.006731 83.129 0.999931 -10.40 0.009587 81.032
           0.999931 -10.40 0.006726 76.849 0.009590 80.520
           0.009587 81.032 0.009590 80.520 0.999908 -8.431
4.56000000 0.006760 83.099 0.999931 -10.45 0.009629 80.993
           0.999931 -10.45 0.006756 76.791 0.009632 80.479
           0.009629 80.993 0.009632 80.479 0.999907 -8.468
4.58000000 0.006790 83.069 0.999930 -10.49 0.009672 80.953
           0.999930 -10.49 0.006785 76.733 0.009675 80.437
           0.009672 80.953 0.009675 80.437 0.999906 -8.505
4.60000000 0.006819 83.039 0.999930 -10.54 0.009714 80.914
           0.999930 -10.54 0.006815 76.675 0.009717 80.395
           0.009714 80.914 0.009717 80.395 0.999906 -8.542
4.62000000 0.006848 83.009 0.999929 -10.58 0.009756 80.874
           0.999929 -10.58 0.006844 76.617 0.009759 80.353
           0.009756 80.874 0.009759 80.353 0.999905 -8.580
4.64000000 0.006878 82.978 0.999928 -10.63 0.009798 80.835
           0.999928 -10.63 0.006873 76.559 0.009802 80.312
           0.009798 80.835 0.009802 80.312 0.999904 -8.617
4.66000000 0.006907 82.948 0.999928 -10.68 0.009841 80.795
           0.999928 -10.68 0.006903 76.501 0.009844 80.270
           0.009841 80.795 0.009844 80.270 0.999903 -8.654
4.68000000 0.006937 82.918 0.999927 -10.72 0.009883 80.756
           0.999927 -10.72 0.006932 76.444 0.009886 80.228
           0.009883 80.756 0.009886 80.228 0.999902 -8.691
4.70000000 0.006966 82.888 0.999926 -10.77 0.009925 80.716
           0.999926 -10.77 0.006961 76.386 0.009928 80.186
           0.009925 80.716 0.009928 80.186 0.999901 -8.728
4.72000000 0.006995 82.858 0.999926 -10.81 0.009967 80.677
           0.999926 -10.81 0.006991 76.328 0.009971 80.144
           0.009967 80.677 0.009971 80.144 0.999901 -8.765
4.74000000 0.007025 82.828 0.999925 -10.86 0.010010 80.637
           0.999925 -10.86 0.007020 76.270 0.010013 80.103
           0.010010 80.637 0.010013 80.103 0.999900 -8.803
4.76000000 0.007054 82.797 0.999925 -10.91 0.010052 80.598
           0.999925 -10.91 0.007049 76.212 0.010055 80.061
           0.010052 80.598 0.010055 80.061 0.999899 -8.840
4.78000000 0.007084 82.767 0.999924 -10.95 0.010094 80.558
           0.999924 -10.95 0.007079 76.154 0.010097 80.019
           0.010094 80.558 0.010097 80.019 0.999898 -8.877
4.80000000 0.007113 82.737 0.999923 -11.00 0.010136 80.519
           0.999923 -11.00 0.007108 76.096 0.010140 79.977
           0.010136 80.519 0.010140 79.977 0.999897 -8.914
4.82000000 0.007142 82.707 0.999923 -11.04 0.010178 80.479
           0.999923 -11.04 0.007137 76.038 0.010182 79.936
           0.010178 80.479 0.010182 79.936 0.999896 -8.951
4.84000000 0.007172 82.677 0.999922 -11.09 0.010221 80.440
           0.999922 -11.09 0.007167 75.980 0.010224 79.894
           0.010221 80.440 0.010224 79.894 0.999895 -8.988
4.86000000 0.007201 82.647 0.999921 -11.13 0.010263 80.400
           0.999921 -11.13 0.007196 75.922 0.010267 79.852
           0.010263 80.400 0.010267 79.852 0.999895 -9.026
4.88000000 0.007231 82.616 0.999921 -11.18 0.010305 80.360
           0.999921 -11.18 0.007225 75.864 0.010309 79.810
           0.010305 80.360 0.010309 79.810 0.999894 -9.063
!< P1 F=4.88 Eeff=(8.78705999 0.0) Z0=(48.6609117 0.0) R=0.0 C=0.00428958 
!< P2 F=4.88 Eeff=(8.78555374 0.0) Z0=(48.654845 0.0) R=0.0 C=0.00428951 
!< P3 F=4.88 Eeff=(8.02769578 0.0) Z0=(53.0239633 0.0) R=0.0 C=0.00476239 
4.90000000 0.007260 82.586 0.999920 -11.23 0.010347 80.321
           0.999920 -11.23 0.007255 75.806 0.010351 79.768
           0.010347 80.321 0.010351 79.768 0.999893 -9.100
4.92000000 0.007289 82.556 0.999919 -11.27 0.010390 80.281
           0.999919 -11.27 0.007284 75.748 0.010393 79.727
           0.010390 80.281 0.010393 79.727 0.999892 -9.137
4.94000000 0.007319 82.526 0.999919 -11.32 0.010432 80.242
           0.999919 -11.32 0.007313 75.690 0.010436 79.685
           0.010432 80.242 0.010436 79.685 0.999891 -9.174
4.96000000 0.007348 82.496 0.999918 -11.36 0.010474 80.202
           0.999918 -11.36 0.007343 75.632 0.010478 79.643
           0.010474 80.202 0.010478 79.643 0.999890 -9.211
4.98000000 0.007377 82.466 0.999918 -11.41 0.010516 80.163
           0.999918 -11.41 0.007372 75.574 0.010520 79.601
           0.010516 80.163 0.010520 79.601 0.999889 -9.249
5.00000000 0.007407 82.436 0.999917 -11.46 0.010559 80.123
           0.999917 -11.46 0.007401 75.516 0.010562 79.560
           0.010559 80.123 0.010562 79.560 0.999888 -9.286
5.02000000 0.007436 82.405 0.999916 -11.50 0.010601 80.084
           0.999916 -11.50 0.007430 75.458 0.010605 79.518
           0.010601 80.084 0.010605 79.518 0.999888 -9.323
5.04000000 0.007466 82.375 0.999916 -11.55 0.010643 80.044
           0.999916 -11.55 0.007460 75.400 0.010647 79.476
           0.010643 80.044 0.010647 79.476 0.999887 -9.360
5.06000000 0.007495 82.345 0.999915 -11.59 0.010685 80.005
           0.999915 -11.59 0.007489 75.343 0.010689 79.434
           0.010685 80.005 0.010689 79.434 0.999886 -9.397
5.08000000 0.007524 82.315 0.999914 -11.64 0.010727 79.965
           0.999914 -11.64 0.007518 75.285 0.010732 79.392
           0.010727 79.965 0.010732 79.392 0.999885 -9.434
5.10000000 0.007554 82.285 0.999914 -11.68 0.010770 79.926
           0.999914 -11.68 0.007548 75.227 0.010774 79.351
           0.010770 79.926 0.010774 79.351 0.999884 -9.472
5.12000000 0.007583 82.255 0.999913 -11.73 0.010812 79.886
           0.999913 -11.73 0.007577 75.169 0.010816 79.309
           0.010812 79.886 0.010816 79.309 0.999883 -9.509
5.14000000 0.007612 82.225 0.999912 -11.78 0.010854 79.847
           0.999912 -11.78 0.007606 75.111 0.010858 79.267
           0.010854 79.847 0.010858 79.267 0.999882 -9.546
5.16000000 0.007642 82.194 0.999911 -11.82 0.010896 79.807
           0.999911 -11.82 0.007635 75.053 0.010901 79.225
           0.010896 79.807 0.010901 79.225 0.999881 -9.583
5.18000000 0.007671 82.164 0.999911 -11.87 0.010939 79.767
           0.999911 -11.87 0.007665 74.995 0.010943 79.183
           0.010939 79.767 0.010943 79.183 0.999880 -9.620
5.20000000 0.007700 82.134 0.999910 -11.91 0.010981 79.728
           0.999910 -11.91 0.007694 74.937 0.010985 79.142
           0.010981 79.728 0.010985 79.142 0.999879 -9.657
5.22000000 0.007730 82.104 0.999909 -11.96 0.011023 79.688
           0.999909 -11.96 0.007723 74.879 0.011028 79.100
           0.011023 79.688 0.011028 79.100 0.999878 -9.695
5.24000000 0.007759 82.074 0.999909 -12.01 0.011065 79.649
           0.999909 -12.01 0.007752 74.821 0.011070 79.058
           0.011065 79.649 0.011070 79.058 0.999877 -9.732
5.26000000 0.007788 82.044 0.999908 -12.05 0.011107 79.609
           0.999908 -12.05 0.007782 74.763 0.011112 79.016
           0.011107 79.609 0.011112 79.016 0.999877 -9.769
5.28000000 0.007818 82.014 0.999907 -12.10 0.011150 79.570
           0.999907 -12.10 0.007811 74.705 0.011154 78.975
           0.011150 79.570 0.011154 78.975 0.999876 -9.806
5.30000000 0.007847 81.983 0.999907 -12.14 0.011192 79.530
           0.999907 -12.14 0.007840 74.647 0.011197 78.933
           0.011192 79.530 0.011197 78.933 0.999875 -9.843
5.32000000 0.007876 81.953 0.999906 -12.19 0.011234 79.491
           0.999906 -12.19 0.007869 74.589 0.011239 78.891
           0.011234 79.491 0.011239 78.891 0.999874 -9.880
5.34000000 0.007906 81.923 0.999905 -12.23 0.011276 79.451
           0.999905 -12.23 0.007899 74.531 0.011281 78.849
           0.011276 79.451 0.011281 78.849 0.999873 -9.918
5.36000000 0.007935 81.893 0.999905 -12.28 0.011319 79.412
           0.999905 -12.28 0.007928 74.473 0.011324 78.807
           0.011319 79.412 0.011324 78.807 0.999872 -9.955
5.38000000 0.007964 81.863 0.999904 -12.33 0.011361 79.372
           0.999904 -12.33 0.007957 74.415 0.011366 78.766
           0.011361 79.372 0.011366 78.766 0.999871 -9.992
5.40000000 0.007993 81.833 0.999903 -12.37 0.011403 79.333
           0.999903 -12.37 0.007986 74.357 0.011408 78.724
           0.011403 79.333 0.011408 78.724 0.999870 -10.03
5.42000000 0.008023 81.803 0.999902 -12.42 0.011445 79.293
           0.999902 -12.42 0.008016 74.299 0.011450 78.682
           0.011445 79.293 0.011450 78.682 0.999869 -10.07
5.44000000 0.008052 81.772 0.999902 -12.46 0.011488 79.253
           0.999902 -12.46 0.008045 74.241 0.011493 78.640
           0.011488 79.253 0.011493 78.640 0.999868 -10.10
5.46000000 0.008081 81.742 0.999901 -12.51 0.011530 79.214
           0.999901 -12.51 0.008074 74.183 0.011535 78.598
           0.011530 79.214 0.011535 78.598 0.999867 -10.14
5.48000000 0.008111 81.712 0.999900 -12.55 0.011572 79.174
           0.999900 -12.55 0.008103 74.125 0.011577 78.557
           0.011572 79.174 0.011577 78.557 0.999866 -10.18
5.50000000 0.008140 81.682 0.999900 -12.60 0.011614 79.135
           0.999900 -12.60 0.008132 74.067 0.011619 78.515
           0.011614 79.135 0.011619 78.515 0.999865 -10.22
5.52000000 0.008169 81.652 0.999899 -12.65 0.011656 79.095
           0.999899 -12.65 0.008162 74.009 0.011662 78.473
           0.011656 79.095 0.011662 78.473 0.999864 -10.25
5.54000000 0.008199 81.622 0.999898 -12.69 0.011699 79.056
           0.999898 -12.69 0.008191 73.951 0.011704 78.431
           0.011699 79.056 0.011704 78.431 0.999863 -10.29
5.56000000 0.008228 81.592 0.999897 -12.74 0.011741 79.016
           0.999897 -12.74 0.008220 73.893 0.011746 78.389
           0.011741 79.016 0.011746 78.389 0.999862 -10.33
5.58000000 0.008257 81.561 0.999897 -12.78 0.011783 78.977
           0.999897 -12.78 0.008249 73.835 0.011789 78.348
           0.011783 78.977 0.011789 78.348 0.999861 -10.36
5.60000000 0.008286 81.531 0.999896 -12.83 0.011825 78.937
           0.999896 -12.83 0.008278 73.777 0.011831 78.306
           0.011825 78.937 0.011831 78.306 0.999860 -10.40
5.62000000 0.008316 81.501 0.999895 -12.88 0.011868 78.898
           0.999895 -12.88 0.008308 73.719 0.011873 78.264
           0.011868 78.898 0.011873 78.264 0.999859 -10.44
5.64000000 0.008345 81.471 0.999894 -12.92 0.011910 78.858
           0.999894 -12.92 0.008337 73.661 0.011916 78.222
           0.011910 78.858 0.011916 78.222 0.999858 -10.48
5.66000000 0.008374 81.441 0.999894 -12.97 0.011952 78.819
           0.999894 -12.97 0.008366 73.603 0.011958 78.181
           0.011952 78.819 0.011958 78.181 0.999857 -10.51
5.68000000 0.008403 81.411 0.999893 -13.01 0.011994 78.779
           0.999893 -13.01 0.008395 73.545 0.012000 78.139
           0.011994 78.779 0.012000 78.139 0.999856 -10.55
5.70000000 0.008433 81.381 0.999892 -13.06 0.012037 78.739
           0.999892 -13.06 0.008424 73.487 0.012042 78.097
           0.012037 78.739 0.012042 78.097 0.999855 -10.59
5.72000000 0.008462 81.350 0.999891 -13.10 0.012079 78.700
           0.999891 -13.10 0.008454 73.429 0.012085 78.055
           0.012079 78.700 0.012085 78.055 0.999854 -10.62
5.74000000 0.008491 81.320 0.999891 -13.15 0.012121 78.660
           0.999891 -13.15 0.008483 73.371 0.012127 78.013
           0.012121 78.660 0.012127 78.013 0.999853 -10.66
5.76000000 0.008521 81.290 0.999890 -13.20 0.012163 78.621
           0.999890 -13.20 0.008512 73.313 0.012169 77.972
           0.012163 78.621 0.012169 77.972 0.999852 -10.70
5.78000000 0.008550 81.260 0.999889 -13.24 0.012205 78.581
           0.999889 -13.24 0.008541 73.255 0.012212 77.930
           0.012205 78.581 0.012212 77.930 0.999851 -10.74
5.80000000 0.008579 81.230 0.999888 -13.29 0.012248 78.542
           0.999888 -13.29 0.008570 73.197 0.012254 77.888
           0.012248 78.542 0.012254 77.888 0.999850 -10.77
5.82000000 0.008608 81.200 0.999888 -13.33 0.012290 78.502
           0.999888 -13.33 0.008599 73.139 0.012296 77.846
           0.012290 78.502 0.012296 77.846 0.999849 -10.81
5.84000000 0.008638 81.169 0.999887 -13.38 0.012332 78.463
           0.999887 -13.38 0.008629 73.080 0.012338 77.804
           0.012332 78.463 0.012338 77.804 0.999848 -10.85
5.86000000 0.008667 81.139 0.999886 -13.43 0.012374 78.423
           0.999886 -13.43 0.008658 73.022 0.012381 77.763
           0.012374 78.423 0.012381 77.763 0.999847 -10.88
5.88000000 0.008696 81.109 0.999885 -13.47 0.012417 78.384
           0.999885 -13.47 0.008687 72.964 0.012423 77.721
           0.012417 78.384 0.012423 77.721 0.999846 -10.92
5.90000000 0.008725 81.079 0.999884 -13.52 0.012459 78.344
           0.999884 -13.52 0.008716 72.906 0.012465 77.679
           0.012459 78.344 0.012465 77.679 0.999845 -10.96
5.92000000 0.008755 81.049 0.999884 -13.56 0.012501 78.305
           0.999884 -13.56 0.008745 72.848 0.012508 77.637
           0.012501 78.305 0.012508 77.637 0.999844 -11.00
5.94000000 0.008784 81.019 0.999883 -13.61 0.012543 78.265
           0.999883 -13.61 0.008774 72.790 0.012550 77.595
           0.012543 78.265 0.012550 77.595 0.999843 -11.03
5.96000000 0.008813 80.988 0.999882 -13.65 0.012585 78.225
           0.999882 -13.65 0.008803 72.732 0.012592 77.554
           0.012585 78.225 0.012592 77.554 0.999842 -11.07
5.98000000 0.008842 80.958 0.999881 -13.70 0.012628 78.186
           0.999881 -13.70 0.008833 72.674 0.012634 77.512
           0.012628 78.186 0.012634 77.512 0.999840 -11.11
6.00000000 0.008871 80.928 0.999880 -13.75 0.012670 78.146
           0.999880 -13.75 0.008862 72.616 0.012677 77.470
           0.012670 78.146 0.012677 77.470 0.999839 -11.14
6.02000000 0.008901 80.898 0.999880 -13.79 0.012712 78.107
           0.999880 -13.79 0.008891 72.558 0.012719 77.428
           0.012712 78.107 0.012719 77.428 0.999838 -11.18
!< P1 F=6.02 Eeff=(8.78707632 0.0) Z0=(48.6609475 0.0) R=0.0 C=0.00428958 
!< P2 F=6.02 Eeff=(8.78557006 0.0) Z0=(48.6548808 0.0) R=0.0 C=0.00428951 
!< P3 F=6.02 Eeff=(8.02772065 0.0) Z0=(53.0239704 0.0) R=0.0 C=0.0047624 
6.04000000 0.008930 80.868 0.999879 -13.84 0.012754 78.067
           0.999879 -13.84 0.008920 72.500 0.012761 77.386
           0.012754 78.067 0.012761 77.386 0.999837 -11.22
6.06000000 0.008959 80.838 0.999878 -13.88 0.012797 78.028
           0.999878 -13.88 0.008949 72.442 0.012804 77.345
           0.012797 78.028 0.012804 77.345 0.999836 -11.26
6.08000000 0.008988 80.808 0.999877 -13.93 0.012839 77.988
           0.999877 -13.93 0.008978 72.384 0.012846 77.303
           0.012839 77.988 0.012846 77.303 0.999835 -11.29
6.10000000 0.009017 80.778 0.999876 -13.98 0.012881 77.949
           0.999876 -13.98 0.009007 72.326 0.012888 77.261
           0.012881 77.949 0.012888 77.261 0.999834 -11.33
6.12000000 0.009047 80.748 0.999876 -14.02 0.012923 77.909
           0.999876 -14.02 0.009036 72.268 0.012931 77.219
           0.012923 77.909 0.012931 77.219 0.999833 -11.37
6.14000000 0.009076 80.718 0.999875 -14.07 0.012965 77.870
           0.999875 -14.07 0.009065 72.210 0.012973 77.177
           0.012965 77.870 0.012973 77.177 0.999832 -11.40
6.16000000 0.009105 80.688 0.999874 -14.11 0.013008 77.830
           0.999874 -14.11 0.009094 72.152 0.013015 77.136
           0.013008 77.830 0.013015 77.136 0.999831 -11.44
6.18000000 0.009134 80.658 0.999873 -14.16 0.013050 77.790
           0.999873 -14.16 0.009123 72.094 0.013057 77.094
           0.013050 77.790 0.013057 77.094 0.999830 -11.48
6.20000000 0.009163 80.628 0.999872 -14.20 0.013092 77.751
           0.999872 -14.20 0.009152 72.036 0.013100 77.052
           0.013092 77.751 0.013100 77.052 0.999828 -11.52
6.22000000 0.009192 80.598 0.999872 -14.25 0.013134 77.711
           0.999872 -14.25 0.009181 71.978 0.013142 77.010
           0.013134 77.711 0.013142 77.010 0.999827 -11.55
6.24000000 0.009221 80.568 0.999871 -14.30 0.013177 77.672
           0.999871 -14.30 0.009210 71.920 0.013184 76.968
           0.013177 77.672 0.013184 76.968 0.999826 -11.59
6.26000000 0.009251 80.538 0.999870 -14.34 0.013219 77.632
           0.999870 -14.34 0.009239 71.862 0.013227 76.927
           0.013219 77.632 0.013227 76.927 0.999825 -11.63
6.28000000 0.009280 80.508 0.999869 -14.39 0.013261 77.593
           0.999869 -14.39 0.009268 71.804 0.013269 76.885
           0.013261 77.593 0.013269 76.885 0.999824 -11.67
6.30000000 0.009309 80.478 0.999868 -14.43 0.013303 77.553
           0.999868 -14.43 0.009298 71.746 0.013311 76.843
           0.013303 77.553 0.013311 76.843 0.999823 -11.70
6.32000000 0.009338 80.448 0.999868 -14.48 0.013346 77.514
           0.999868 -14.48 0.009327 71.688 0.013353 76.801
           0.013346 77.514 0.013353 76.801 0.999822 -11.74
6.34000000 0.009367 80.418 0.999867 -14.53 0.013388 77.474
           0.999867 -14.53 0.009356 71.630 0.013396 76.759
           0.013388 77.474 0.013396 76.759 0.999821 -11.78
6.36000000 0.009396 80.388 0.999866 -14.57 0.013430 77.434
           0.999866 -14.57 0.009385 71.572 0.013438 76.718
           0.013430 77.434 0.013438 76.718 0.999820 -11.81
6.38000000 0.009425 80.358 0.999865 -14.62 0.013472 77.395
           0.999865 -14.62 0.009414 71.514 0.013480 76.676
           0.013472 77.395 0.013480 76.676 0.999818 -11.85
6.40000000 0.009454 80.328 0.999864 -14.66 0.013514 77.355
           0.999864 -14.66 0.009443 71.456 0.013523 76.634
           0.013514 77.355 0.013523 76.634 0.999817 -11.89
6.42000000 0.009484 80.298 0.999863 -14.71 0.013557 77.316
           0.999863 -14.71 0.009472 71.398 0.013565 76.592
           0.013557 77.316 0.013565 76.592 0.999816 -11.93
6.44000000 0.009513 80.268 0.999863 -14.75 0.013599 77.276
           0.999863 -14.75 0.009501 71.340 0.013607 76.550
           0.013599 77.276 0.013607 76.550 0.999815 -11.96
6.46000000 0.009542 80.238 0.999862 -14.80 0.013641 77.237
           0.999862 -14.80 0.009530 71.282 0.013650 76.509
           0.013641 77.237 0.013650 76.509 0.999814 -12.00
6.48000000 0.009571 80.208 0.999861 -14.85 0.013683 77.197
           0.999861 -14.85 0.009558 71.224 0.013692 76.467
           0.013683 77.197 0.013692 76.467 0.999813 -12.04
6.50000000 0.009600 80.178 0.999860 -14.89 0.013726 77.158
           0.999860 -14.89 0.009587 71.166 0.013734 76.425
           0.013726 77.158 0.013734 76.425 0.999811 -12.07
6.52000000 0.009629 80.148 0.999859 -14.94 0.013768 77.118
           0.999859 -14.94 0.009616 71.108 0.013777 76.383
           0.013768 77.118 0.013777 76.383 0.999810 -12.11
6.54000000 0.009658 80.118 0.999858 -14.98 0.013810 77.079
           0.999858 -14.98 0.009645 71.050 0.013819 76.341
           0.013810 77.079 0.013819 76.341 0.999809 -12.15
6.56000000 0.009687 80.088 0.999857 -15.03 0.013852 77.039
           0.999857 -15.03 0.009674 70.992 0.013861 76.300
           0.013852 77.039 0.013861 76.300 0.999808 -12.19
6.58000000 0.009716 80.058 0.999857 -15.07 0.013894 76.999
           0.999857 -15.07 0.009703 70.934 0.013903 76.258
           0.013894 76.999 0.013903 76.258 0.999807 -12.22
6.60000000 0.009745 80.028 0.999856 -15.12 0.013937 76.960
           0.999856 -15.12 0.009732 70.876 0.013946 76.216
           0.013937 76.960 0.013946 76.216 0.999806 -12.26
6.62000000 0.009774 79.998 0.999855 -15.17 0.013979 76.920
           0.999855 -15.17 0.009761 70.818 0.013988 76.174
           0.013979 76.920 0.013988 76.174 0.999804 -12.30
6.64000000 0.009804 79.968 0.999854 -15.21 0.014021 76.881
           0.999854 -15.21 0.009790 70.760 0.014030 76.132
           0.014021 76.881 0.014030 76.132 0.999803 -12.33
6.66000000 0.009833 79.938 0.999853 -15.26 0.014063 76.841
           0.999853 -15.26 0.009819 70.702 0.014073 76.091
           0.014063 76.841 0.014073 76.091 0.999802 -12.37
6.68000000 0.009862 79.908 0.999852 -15.30 0.014106 76.802
           0.999852 -15.30 0.009848 70.644 0.014115 76.049
           0.014106 76.802 0.014115 76.049 0.999801 -12.41
6.70000000 0.009891 79.878 0.999851 -15.35 0.014148 76.762
           0.999851 -15.35 0.009877 70.586 0.014157 76.007
           0.014148 76.762 0.014157 76.007 0.999800 -12.45
6.72000000 0.009920 79.848 0.999851 -15.40 0.014190 76.723
           0.999851 -15.40 0.009906 70.528 0.014200 75.965
           0.014190 76.723 0.014200 75.965 0.999799 -12.48
6.74000000 0.009949 79.818 0.999850 -15.44 0.014232 76.683
           0.999850 -15.44 0.009935 70.470 0.014242 75.923
           0.014232 76.683 0.014242 75.923 0.999797 -12.52
6.76000000 0.009978 79.788 0.999849 -15.49 0.014274 76.643
           0.999849 -15.49 0.009964 70.412 0.014284 75.882
           0.014274 76.643 0.014284 75.882 0.999796 -12.56
6.78000000 0.010007 79.758 0.999848 -15.53 0.014317 76.604
           0.999848 -15.53 0.009993 70.354 0.014327 75.840
           0.014317 76.604 0.014327 75.840 0.999795 -12.60
6.80000000 0.010036 79.728 0.999847 -15.58 0.014359 76.564
           0.999847 -15.58 0.010022 70.296 0.014369 75.798
           0.014359 76.564 0.014369 75.798 0.999794 -12.63
6.82000000 0.010065 79.698 0.999846 -15.62 0.014401 76.525
           0.999846 -15.62 0.010050 70.238 0.014411 75.756
           0.014401 76.525 0.014411 75.756 0.999792 -12.67
6.84000000 0.010094 79.668 0.999845 -15.67 0.014443 76.485
           0.999845 -15.67 0.010079 70.180 0.014453 75.714
           0.014443 76.485 0.014453 75.714 0.999791 -12.71
6.86000000 0.010123 79.638 0.999844 -15.72 0.014486 76.446
           0.999844 -15.72 0.010108 70.122 0.014496 75.672
           0.014486 76.446 0.014496 75.672 0.999790 -12.74
6.88000000 0.010152 79.608 0.999843 -15.76 0.014528 76.406
           0.999843 -15.76 0.010137 70.064 0.014538 75.631
           0.014528 76.406 0.014538 75.631 0.999789 -12.78
6.90000000 0.010181 79.578 0.999843 -15.81 0.014570 76.367
           0.999843 -15.81 0.010166 70.006 0.014580 75.589
           0.014570 76.367 0.014580 75.589 0.999788 -12.82
6.92000000 0.010210 79.548 0.999842 -15.85 0.014612 76.327
           0.999842 -15.85 0.010195 69.948 0.014623 75.547
           0.014612 76.327 0.014623 75.547 0.999786 -12.86
6.94000000 0.010239 79.518 0.999841 -15.90 0.014654 76.287
           0.999841 -15.90 0.010224 69.890 0.014665 75.505
           0.014654 76.287 0.014665 75.505 0.999785 -12.89
6.96000000 0.010268 79.488 0.999840 -15.95 0.014697 76.248
           0.999840 -15.95 0.010253 69.832 0.014707 75.463
           0.014697 76.248 0.014707 75.463 0.999784 -12.93
6.98000000 0.010297 79.458 0.999839 -15.99 0.014739 76.208
           0.999839 -15.99 0.010282 69.774 0.014750 75.422
           0.014739 76.208 0.014750 75.422 0.999783 -12.97
7.00000000 0.010326 79.428 0.999838 -16.04 0.014781 76.169
           0.999838 -16.04 0.010310 69.716 0.014792 75.380
           0.014781 76.169 0.014792 75.380 0.999781 -13.00
7.02000000 0.010355 79.398 0.999837 -16.08 0.014823 76.129
           0.999837 -16.08 0.010339 69.658 0.014834 75.338
           0.014823 76.129 0.014834 75.338 0.999780 -13.04
7.04000000 0.010384 79.368 0.999836 -16.13 0.014866 76.090
           0.999836 -16.13 0.010368 69.600 0.014877 75.296
           0.014866 76.090 0.014877 75.296 0.999779 -13.08
7.06000000 0.010413 79.338 0.999835 -16.17 0.014908 76.050
           0.999835 -16.17 0.010397 69.541 0.014919 75.254
           0.014908 76.050 0.014919 75.254 0.999778 -13.12
7.08000000 0.010442 79.308 0.999834 -16.22 0.014950 76.010
           0.999834 -16.22 0.010426 69.483 0.014961 75.213
           0.014950 76.010 0.014961 75.213 0.999776 -13.15
7.10000000 0.010471 79.278 0.999833 -16.27 0.014992 75.971
           0.999833 -16.27 0.010455 69.425 0.015004 75.171
           0.014992 75.971 0.015004 75.171 0.999775 -13.19
7.12000000 0.010500 79.248 0.999832 -16.31 0.015034 75.931
           0.999832 -16.31 0.010484 69.367 0.015046 75.129
           0.015034 75.931 0.015046 75.129 0.999774 -13.23
7.14000000 0.010529 79.218 0.999831 -16.36 0.015077 75.892
           0.999831 -16.36 0.010512 69.309 0.015088 75.087
           0.015077 75.892 0.015088 75.087 0.999773 -13.27
7.16000000 0.010558 79.188 0.999831 -16.40 0.015119 75.852
           0.999831 -16.40 0.010541 69.251 0.015130 75.045
           0.015119 75.852 0.015130 75.045 0.999771 -13.30
7.18000000 0.010587 79.158 0.999830 -16.45 0.015161 75.813
           0.999830 -16.45 0.010570 69.193 0.015173 75.003
           0.015161 75.813 0.015173 75.003 0.999770 -13.34
7.20000000 0.010616 79.128 0.999829 -16.50 0.015203 75.773
           0.999829 -16.50 0.010599 69.135 0.015215 74.962
           0.015203 75.773 0.015215 74.962 0.999769 -13.38
7.22000000 0.010645 79.098 0.999828 -16.54 0.015246 75.733
           0.999828 -16.54 0.010628 69.077 0.015257 74.920
           0.015246 75.733 0.015257 74.920 0.999767 -13.41
7.24000000 0.010674 79.068 0.999827 -16.59 0.015288 75.694
           0.999827 -16.59 0.010656 69.019 0.015300 74.878
           0.015288 75.694 0.015300 74.878 0.999766 -13.45