! Sonnet Data File
! From: em Version : 15.52
! From Project: CPW_gap_coupler_3port_1um_FL_TS_6um_finer
! Data is De-embedded 
! Data File Written: 08/14/2018 18:07:51
!< HDATE 08/14/2018 17:46:56
!< MDATE 08/14/2018 17:46:56
!< PARAMS
!< gap = 2.0
!< cpwS = 5.0
!< cpwS1 = 5.0
!< feedW = 12.0
!< feedS1 = 5.0
!< cond_length = 644.0
!< inner_length = 626.0
!< hangerW = 12.0000175
!< open_gap = 22.0
!< coupler_length = 650.0
!< END PARAMS
# GHZ S MA R 50.00000
4.00000000 0.009250 84.126 0.999710 -9.276 0.022249 70.706
           0.999710 -9.276 0.009131 80.326 0.022298 82.654
           0.022249 70.706 0.022298 82.654 0.999504 -17.88
!< P1 F=4.0 Eeff=(8.78704973 0.0) Z0=(48.6608892 0.0) R=0.0 C=0.00428958 
!< P2 F=4.0 Eeff=(9.50499178 0.0) Z0=(51.4981039 0.0) R=0.0 C=0.00432011 
!< P3 F=4.0 Eeff=(7.90610895 0.0) Z0=(45.5421066 0.0) R=0.0 C=0.00436181 
4.02000000 0.009297 84.095 0.999707 -9.322 0.022360 70.609
           0.999707 -9.322 0.009176 80.278 0.022409 82.617
           0.022360 70.609 0.022409 82.617 0.999499 -17.97
4.04000000 0.009344 84.065 0.999704 -9.369 0.022470 70.513
           0.999704 -9.369 0.009222 80.229 0.022521 82.580
           0.022470 70.513 0.022521 82.580 0.999494 -18.05
4.06000000 0.009391 84.034 0.999701 -9.415 0.022581 70.416
           0.999701 -9.415 0.009267 80.181 0.022632 82.543
           0.022581 70.416 0.022632 82.543 0.999489 -18.14
4.08000000 0.009438 84.004 0.999698 -9.462 0.022692 70.320
           0.999698 -9.462 0.009312 80.132 0.022744 82.506
           0.022692 70.320 0.022744 82.506 0.999484 -18.23
4.10000000 0.009485 83.973 0.999695 -9.508 0.022802 70.224
           0.999695 -9.508 0.009357 80.084 0.022855 82.469
           0.022802 70.224 0.022855 82.469 0.999478 -18.32
4.12000000 0.009532 83.942 0.999692 -9.554 0.022913 70.127
           0.999692 -9.554 0.009402 80.036 0.022967 82.432
           0.022913 70.127 0.022967 82.432 0.999473 -18.41
4.14000000 0.009579 83.912 0.999689 -9.601 0.023024 70.031
           0.999689 -9.601 0.009448 79.987 0.023078 82.395
           0.023024 70.031 0.023078 82.395 0.999468 -18.50
4.16000000 0.009626 83.881 0.999686 -9.647 0.023134 69.934
           0.999686 -9.647 0.009493 79.939 0.023189 82.358
           0.023134 69.934 0.023189 82.358 0.999463 -18.59
4.18000000 0.009673 83.851 0.999683 -9.693 0.023245 69.838
           0.999683 -9.693 0.009538 79.890 0.023301 82.321
           0.023245 69.838 0.023301 82.321 0.999458 -18.68
4.20000000 0.009720 83.820 0.999680 -9.740 0.023356 69.741
           0.999680 -9.740 0.009583 79.842 0.023412 82.284
           0.023356 69.741 0.023412 82.284 0.999453 -18.77
4.22000000 0.009767 83.790 0.999676 -9.786 0.023466 69.645
           0.999676 -9.786 0.009628 79.793 0.023524 82.247
           0.023466 69.645 0.023524 82.247 0.999447 -18.86
4.24000000 0.009814 83.759 0.999673 -9.832 0.023577 69.548
           0.999673 -9.832 0.009673 79.745 0.023635 82.210
           0.023577 69.548 0.023635 82.210 0.999442 -18.95
4.26000000 0.009861 83.728 0.999670 -9.879 0.023687 69.452
           0.999670 -9.879 0.009718 79.696 0.023747 82.173
           0.023687 69.452 0.023747 82.173 0.999437 -19.04
4.28000000 0.009908 83.698 0.999667 -9.925 0.023798 69.355
           0.999667 -9.925 0.009764 79.648 0.023858 82.136
           0.023798 69.355 0.023858 82.136 0.999432 -19.13
4.30000000 0.009955 83.667 0.999664 -9.972 0.023909 69.259
           0.999664 -9.972 0.009809 79.599 0.023969 82.099
           0.023909 69.259 0.023969 82.099 0.999426 -19.22
4.32000000 0.010002 83.636 0.999661 -10.02 0.024019 69.162
           0.999661 -10.02 0.009854 79.551 0.024081 82.062
           0.024019 69.162 0.024081 82.062 0.999421 -19.31
4.34000000 0.010050 83.606 0.999658 -10.06 0.024130 69.066
           0.999658 -10.06 0.009899 79.503 0.024192 82.025
           0.024130 69.066 0.024192 82.025 0.999416 -19.40
4.36000000 0.010097 83.575 0.999655 -10.11 0.024240 68.969
           0.999655 -10.11 0.009944 79.454 0.024304 81.988
           0.024240 68.969 0.024304 81.988 0.999410 -19.49
4.38000000 0.010144 83.544 0.999651 -10.16 0.024351 68.873
           0.999651 -10.16 0.009989 79.406 0.024415 81.952
           0.024351 68.873 0.024415 81.952 0.999405 -19.58
4.40000000 0.010191 83.514 0.999648 -10.20 0.024462 68.776
           0.999648 -10.20 0.010034 79.357 0.024527 81.915
           0.024462 68.776 0.024527 81.915 0.999399 -19.67
4.42000000 0.010238 83.483 0.999645 -10.25 0.024572 68.680
           0.999645 -10.25 0.010079 79.309 0.024638 81.878
           0.024572 68.680 0.024638 81.878 0.999394 -19.75
4.44000000 0.010285 83.452 0.999642 -10.30 0.024683 68.583
           0.999642 -10.30 0.010124 79.260 0.024750 81.841
           0.024683 68.583 0.024750 81.841 0.999388 -19.84
4.46000000 0.010333 83.421 0.999638 -10.34 0.024793 68.487
           0.999638 -10.34 0.010169 79.212 0.024861 81.804
           0.024793 68.487 0.024861 81.804 0.999383 -19.93
4.48000000 0.010380 83.391 0.999635 -10.39 0.024904 68.390
           0.999635 -10.39 0.010214 79.164 0.024972 81.767
           0.024904 68.390 0.024972 81.767 0.999377 -20.02
4.50000000 0.010427 83.360 0.999632 -10.44 0.025014 68.294
           0.999632 -10.44 0.010259 79.115 0.025084 81.730
           0.025014 68.294 0.025084 81.730 0.999372 -20.11
4.52000000 0.010474 83.329 0.999629 -10.48 0.025125 68.197
           0.999629 -10.48 0.010304 79.067 0.025195 81.693
           0.025125 68.197 0.025195 81.693 0.999366 -20.20
4.54000000 0.010522 83.298 0.999625 -10.53 0.025235 68.101
           0.999625 -10.53 0.010349 79.018 0.025307 81.656
           0.025235 68.101 0.025307 81.656 0.999361 -20.29
4.56000000 0.010569 83.268 0.999622 -10.57 0.025346 68.004
           0.999622 -10.57 0.010394 78.970 0.025418 81.619
           0.025346 68.004 0.025418 81.619 0.999355 -20.38
4.58000000 0.010616 83.237 0.999619 -10.62 0.025456 67.908
           0.999619 -10.62 0.010439 78.922 0.025530 81.582
           0.025456 67.908 0.025530 81.582 0.999349 -20.47
4.60000000 0.010663 83.206 0.999615 -10.67 0.025567 67.811
           0.999615 -10.67 0.010484 78.873 0.025641 81.545
           0.025567 67.811 0.025641 81.545 0.999344 -20.56
4.62000000 0.010711 83.175 0.999612 -10.71 0.025677 67.714
           0.999612 -10.71 0.010529 78.825 0.025752 81.508
           0.025677 67.714 0.025752 81.508 0.999338 -20.65
4.64000000 0.010758 83.144 0.999609 -10.76 0.025788 67.618
           0.999609 -10.76 0.010574 78.777 0.025864 81.471
           0.025788 67.618 0.025864 81.471 0.999332 -20.74
4.66000000 0.010805 83.113 0.999605 -10.81 0.025898 67.521
           0.999605 -10.81 0.010619 78.728 0.025975 81.434
           0.025898 67.521 0.025975 81.434 0.999326 -20.83
4.68000000 0.010853 83.083 0.999602 -10.85 0.026009 67.425
           0.999602 -10.85 0.010664 78.680 0.026087 81.397
           0.026009 67.425 0.026087 81.397 0.999321 -20.92
4.70000000 0.010900 83.052 0.999599 -10.90 0.026119 67.328
           0.999599 -10.90 0.010709 78.631 0.026198 81.360
           0.026119 67.328 0.026198 81.360 0.999315 -21.01
4.72000000 0.010947 83.021 0.999595 -10.95 0.026229 67.232
           0.999595 -10.95 0.010754 78.583 0.026310 81.323
           0.026229 67.232 0.026310 81.323 0.999309 -21.10
4.74000000 0.010995 82.990 0.999592 -10.99 0.026340 67.135
           0.999592 -10.99 0.010799 78.535 0.026421 81.286
           0.026340 67.135 0.026421 81.286 0.999303 -21.19
4.76000000 0.011042 82.959 0.999588 -11.04 0.026450 67.039
           0.999588 -11.04 0.010844 78.486 0.026532 81.249
           0.026450 67.039 0.026532 81.249 0.999297 -21.28
4.78000000 0.011089 82.928 0.999585 -11.08 0.026561 66.942
           0.999585 -11.08 0.010889 78.438 0.026644 81.212
           0.026561 66.942 0.026644 81.212 0.999291 -21.37
4.80000000 0.011137 82.897 0.999581 -11.13 0.026671 66.846
           0.999581 -11.13 0.010934 78.390 0.026755 81.175
           0.026671 66.846 0.026755 81.175 0.999285 -21.46
4.82000000 0.011184 82.866 0.999578 -11.18 0.026782 66.749
           0.999578 -11.18 0.010979 78.341 0.026867 81.138
           0.026782 66.749 0.026867 81.138 0.999280 -21.54
4.84000000 0.011232 82.835 0.999574 -11.22 0.026892 66.652
           0.999574 -11.22 0.011024 78.293 0.026978 81.101
           0.026892 66.652 0.026978 81.101 0.999274 -21.63
4.86000000 0.011279 82.804 0.999571 -11.27 0.027002 66.556
           0.999571 -11.27 0.011068 78.245 0.027090 81.064
           0.027002 66.556 0.027090 81.064 0.999268 -21.72
4.88000000 0.011327 82.773 0.999567 -11.32 0.027113 66.459
           0.999567 -11.32 0.011113 78.196 0.027201 81.027
           0.027113 66.459 0.027201 81.027 0.999262 -21.81
4.90000000 0.011374 82.742 0.999564 -11.36 0.027223 66.363
           0.999564 -11.36 0.011158 78.148 0.027313 80.990
           0.027223 66.363 0.027313 80.990 0.999256 -21.90
4.92000000 0.011422 82.711 0.999560 -11.41 0.027333 66.266
           0.999560 -11.41 0.011203 78.100 0.027424 80.953
           0.027333 66.266 0.027424 80.953 0.999250 -21.99
4.94000000 0.011469 82.680 0.999557 -11.46 0.027444 66.170
           0.999557 -11.46 0.011248 78.051 0.027535 80.916
           0.027444 66.170 0.027535 80.916 0.999243 -22.08
4.96000000 0.011517 82.649 0.999553 -11.50 0.027554 66.073
           0.999553 -11.50 0.011293 78.003 0.027647 80.879
           0.027554 66.073 0.027647 80.879 0.999237 -22.17
4.98000000 0.011564 82.618 0.999550 -11.55 0.027664 65.977
           0.999550 -11.55 0.011337 77.955 0.027758 80.841
           0.027664 65.977 0.027758 80.841 0.999231 -22.26
5.00000000 0.011612 82.587 0.999546 -11.59 0.027775 65.880
           0.999546 -11.59 0.011382 77.906 0.027870 80.804
           0.027775 65.880 0.027870 80.804 0.999225 -22.35
5.02000000 0.011659 82.555 0.999542 -11.64 0.027885 65.783
           0.999542 -11.64 0.011427 77.858 0.027981 80.767
           0.027885 65.783 0.027981 80.767 0.999219 -22.44
5.04000000 0.011707 82.524 0.999539 -11.69 0.027995 65.687
           0.999539 -11.69 0.011472 77.810 0.028092 80.730
           0.027995 65.687 0.028092 80.730 0.999213 -22.53
5.06000000 0.011754 82.493 0.999535 -11.73 0.028105 65.590
           0.999535 -11.73 0.011517 77.761 0.028204 80.693
           0.028105 65.590 0.028204 80.693 0.999206 -22.62
5.08000000 0.011802 82.462 0.999531 -11.78 0.028216 65.494
           0.999531 -11.78 0.011561 77.713 0.028315 80.656
           0.028216 65.494 0.028315 80.656 0.999200 -22.71
5.10000000 0.011849 82.431 0.999528 -11.83 0.028326 65.397
           0.999528 -11.83 0.011606 77.665 0.028427 80.619
           0.028326 65.397 0.028427 80.619 0.999194 -22.80
5.12000000 0.011897 82.400 0.999524 -11.87 0.028436 65.301
           0.999524 -11.87 0.011651 77.616 0.028538 80.582
           0.028436 65.301 0.028538 80.582 0.999188 -22.89
5.14000000 0.011945 82.368 0.999520 -11.92 0.028546 65.204
           0.999520 -11.92 0.011696 77.568 0.028650 80.545
           0.028546 65.204 0.028650 80.545 0.999181 -22.98
5.16000000 0.011992 82.337 0.999517 -11.97 0.028657 65.107
           0.999517 -11.97 0.011740 77.520 0.028761 80.508
           0.028657 65.107 0.028761 80.508 0.999175 -23.07
5.18000000 0.012040 82.306 0.999513 -12.01 0.028767 65.011
           0.999513 -12.01 0.011785 77.471 0.028872 80.471
           0.028767 65.011 0.028872 80.471 0.999169 -23.16
5.20000000 0.012088 82.275 0.999509 -12.06 0.028877 64.914
           0.999509 -12.06 0.011830 77.423 0.028984 80.434
           0.028877 64.914 0.028984 80.434 0.999162 -23.25
5.22000000 0.012135 82.243 0.999505 -12.10 0.028987 64.818
           0.999505 -12.10 0.011875 77.375 0.029095 80.397
           0.028987 64.818 0.029095 80.397 0.999156 -23.34
5.24000000 0.012183 82.212 0.999502 -12.15 0.029098 64.721
           0.999502 -12.15 0.011919 77.326 0.029207 80.360
           0.029098 64.721 0.029207 80.360 0.999149 -23.43
5.26000000 0.012231 82.181 0.999498 -12.20 0.029208 64.625
           0.999498 -12.20 0.011964 77.278 0.029318 80.323
           0.029208 64.625 0.029318 80.323 0.999143 -23.51
5.28000000 0.012278 82.149 0.999494 -12.24 0.029318 64.528
           0.999494 -12.24 0.012009 77.230 0.029429 80.286
           0.029318 64.528 0.029429 80.286 0.999136 -23.60
5.30000000 0.012326 82.118 0.999490 -12.29 0.029428 64.431
           0.999490 -12.29 0.012053 77.182 0.029541 80.248
           0.029428 64.431 0.029541 80.248 0.999130 -23.69
5.32000000 0.012374 82.087 0.999486 -12.34 0.029538 64.335
           0.999486 -12.34 0.012098 77.133 0.029652 80.211
           0.029538 64.335 0.029652 80.211 0.999123 -23.78
5.34000000 0.012421 82.055 0.999483 -12.38 0.029648 64.238
           0.999483 -12.38 0.012143 77.085 0.029764 80.174
           0.029648 64.238 0.029764 80.174 0.999117 -23.87
5.36000000 0.012469 82.024 0.999479 -12.43 0.029758 64.142
           0.999479 -12.43 0.012187 77.037 0.029875 80.137
           0.029758 64.142 0.029875 80.137 0.999110 -23.96
5.38000000 0.012517 81.992 0.999475 -12.48 0.029869 64.045
           0.999475 -12.48 0.012232 76.988 0.029987 80.100
           0.029869 64.045 0.029987 80.100 0.999104 -24.05
5.40000000 0.012565 81.961 0.999471 -12.52 0.029979 63.948
           0.999471 -12.52 0.012277 76.940 0.030098 80.063
           0.029979 63.948 0.030098 80.063 0.999097 -24.14
5.42000000 0.012612 81.929 0.999467 -12.57 0.030089 63.852
           0.999467 -12.57 0.012321 76.892 0.030209 80.026
           0.030089 63.852 0.030209 80.026 0.999090 -24.23
5.44000000 0.012660 81.898 0.999463 -12.61 0.030199 63.755
           0.999463 -12.61 0.012366 76.844 0.030321 79.989
           0.030199 63.755 0.030321 79.989 0.999084 -24.32
5.46000000 0.012708 81.866 0.999459 -12.66 0.030309 63.659
           0.999459 -12.66 0.012410 76.795 0.030432 79.952
           0.030309 63.659 0.030432 79.952 0.999077 -24.41
5.48000000 0.012756 81.835 0.999455 -12.71 0.030419 63.562
           0.999455 -12.71 0.012455 76.747 0.030544 79.914
           0.030419 63.562 0.030544 79.914 0.999070 -24.50
5.50000000 0.012804 81.803 0.999451 -12.75 0.030529 63.466
           0.999451 -12.75 0.012500 76.699 0.030655 79.877
           0.030529 63.466 0.030655 79.877 0.999063 -24.59
5.52000000 0.012852 81.772 0.999447 -12.80 0.030639 63.369
           0.999447 -12.80 0.012544 76.650 0.030766 79.840
           0.030639 63.369 0.030766 79.840 0.999057 -24.68
5.54000000 0.012899 81.740 0.999444 -12.85 0.030749 63.272
           0.999444 -12.85 0.012589 76.602 0.030878 79.803
           0.030749 63.272 0.030878 79.803 0.999050 -24.77
5.56000000 0.012947 81.709 0.999440 -12.89 0.030859 63.176
           0.999440 -12.89 0.012633 76.554 0.030989 79.766
           0.030859 63.176 0.030989 79.766 0.999043 -24.86
5.58000000 0.012995 81.677 0.999436 -12.94 0.030969 63.079
           0.999436 -12.94 0.012678 76.505 0.031101 79.729
           0.030969 63.079 0.031101 79.729 0.999036 -24.95
5.60000000 0.013043 81.645 0.999431 -12.99 0.031079 62.983
           0.999431 -12.99 0.012722 76.457 0.031212 79.692
           0.031079 62.983 0.031212 79.692 0.999029 -25.04
5.62000000 0.013091 81.614 0.999427 -13.03 0.031189 62.886
           0.999427 -13.03 0.012767 76.409 0.031323 79.655
           0.031189 62.886 0.031323 79.655 0.999022 -25.13
5.64000000 0.013139 81.582 0.999423 -13.08 0.031299 62.789
           0.999423 -13.08 0.012811 76.361 0.031435 79.617
           0.031299 62.789 0.031435 79.617 0.999015 -25.22
5.66000000 0.013187 81.550 0.999419 -13.12 0.031409 62.693
           0.999419 -13.12 0.012856 76.312 0.031546 79.580
           0.031409 62.693 0.031546 79.580 0.999009 -25.31
5.68000000 0.013235 81.519 0.999415 -13.17 0.031519 62.596
           0.999415 -13.17 0.012900 76.264 0.031657 79.543
           0.031519 62.596 0.031657 79.543 0.999002 -25.40
5.70000000 0.013283 81.487 0.999411 -13.22 0.031629 62.500
           0.999411 -13.22 0.012945 76.216 0.031769 79.506
           0.031629 62.500 0.031769 79.506 0.998995 -25.49
5.72000000 0.013331 81.455 0.999407 -13.26 0.031739 62.403
           0.999407 -13.26 0.012989 76.167 0.031880 79.469
           0.031739 62.403 0.031880 79.469 0.998988 -25.57
5.74000000 0.013379 81.424 0.999403 -13.31 0.031849 62.306
           0.999403 -13.31 0.013034 76.119 0.031992 79.432
           0.031849 62.306 0.031992 79.432 0.998980 -25.66
5.76000000 0.013427 81.392 0.999399 -13.36 0.031959 62.210
           0.999399 -13.36 0.013078 76.071 0.032103 79.394
           0.031959 62.210 0.032103 79.394 0.998973 -25.75
5.78000000 0.013475 81.360 0.999395 -13.40 0.032069 62.113
           0.999395 -13.40 0.013123 76.023 0.032214 79.357
           0.032069 62.113 0.032214 79.357 0.998966 -25.84
5.80000000 0.013523 81.328 0.999391 -13.45 0.032179 62.017
           0.999391 -13.45 0.013167 75.974 0.032326 79.320
           0.032179 62.017 0.032326 79.320 0.998959 -25.93
5.82000000 0.013571 81.296 0.999386 -13.50 0.032288 61.920
           0.999386 -13.50 0.013212 75.926 0.032437 79.283
           0.032288 61.920 0.032437 79.283 0.998952 -26.02
5.84000000 0.013619 81.264 0.999382 -13.54 0.032398 61.823
           0.999382 -13.54 0.013256 75.878 0.032549 79.246
           0.032398 61.823 0.032549 79.246 0.998945 -26.11
5.86000000 0.013667 81.233 0.999378 -13.59 0.032508 61.727
           0.999378 -13.59 0.013300 75.829 0.032660 79.208
           0.032508 61.727 0.032660 79.208 0.998938 -26.20
5.88000000 0.013715 81.201 0.999374 -13.63 0.032618 61.630
           0.999374 -13.63 0.013345 75.781 0.032771 79.171
           0.032618 61.630 0.032771 79.171 0.998930 -26.29
5.90000000 0.013763 81.169 0.999369 -13.68 0.032728 61.534
           0.999369 -13.68 0.013389 75.733 0.032883 79.134
           0.032728 61.534 0.032883 79.134 0.998923 -26.38
5.92000000 0.013811 81.137 0.999365 -13.73 0.032838 61.437
           0.999365 -13.73 0.013433 75.685 0.032994 79.097
           0.032838 61.437 0.032994 79.097 0.998916 -26.47
5.94000000 0.013860 81.105 0.999361 -13.77 0.032947 61.340
           0.999361 -13.77 0.013478 75.636 0.033105 79.060
           0.032947 61.340 0.033105 79.060 0.998909 -26.56
!< P1 F=5.94 Eeff=(8.78707506 0.0) Z0=(48.6609448 0.0) R=0.0 C=0.00428958 
!< P2 F=5.94 Eeff=(9.50506126 0.0) Z0=(51.498329 0.0) R=0.0 C=0.00432012 
!< P3 F=5.94 Eeff=(7.90612153 0.0) Z0=(45.5420314 0.0) R=0.0 C=0.0043618 
5.96000000 0.013908 81.073 0.999357 -13.82 0.033057 61.244
           0.999357 -13.82 0.013522 75.588 0.033217 79.022
           0.033057 61.244 0.033217 79.022 0.998901 -26.65
5.98000000 0.013956 81.041 0.999352 -13.87 0.033167 61.147
           0.999352 -13.87 0.013567 75.540 0.033328 78.985
           0.033167 61.147 0.033328 78.985 0.998894 -26.74
6.00000000 0.014004 81.009 0.999348 -13.91 0.033277 61.051
           0.999348 -13.91 0.013611 75.491 0.033439 78.948
           0.033277 61.051 0.033439 78.948 0.998887 -26.83
6.02000000 0.014052 80.977 0.999344 -13.96 0.033387 60.954
           0.999344 -13.96 0.013655 75.443 0.033551 78.911
           0.033387 60.954 0.033551 78.911 0.998879 -26.92
6.04000000 0.014100 80.945 0.999339 -14.01 0.033496 60.857
           0.999339 -14.01 0.013700 75.395 0.033662 78.874
           0.033496 60.857 0.033662 78.874 0.998872 -27.01
6.06000000 0.014149 80.913 0.999335 -14.05 0.033606 60.761
           0.999335 -14.05 0.013744 75.347 0.033774 78.836
           0.033606 60.761 0.033774 78.836 0.998864 -27.10
6.08000000 0.014197 80.880 0.999331 -14.10 0.033716 60.664
           0.999331 -14.10 0.013788 75.298 0.033885 78.799
           0.033716 60.664 0.033885 78.799 0.998857 -27.19
6.10000000 0.014245 80.848 0.999326 -14.14 0.033825 60.568
           0.999326 -14.14 0.013832 75.250 0.033996 78.762
           0.033825 60.568 0.033996 78.762 0.998849 -27.28
6.12000000 0.014293 80.816 0.999322 -14.19 0.033935 60.471
           0.999322 -14.19 0.013877 75.202 0.034108 78.725
           0.033935 60.471 0.034108 78.725 0.998842 -27.37
6.14000000 0.014342 80.784 0.999318 -14.24 0.034045 60.374
           0.999318 -14.24 0.013921 75.153 0.034219 78.687
           0.034045 60.374 0.034219 78.687 0.998834 -27.46
6.16000000 0.014390 80.752 0.999313 -14.28 0.034155 60.278
           0.999313 -14.28 0.013965 75.105 0.034330 78.650
           0.034155 60.278 0.034330 78.650 0.998827 -27.55
6.18000000 0.014438 80.720 0.999309 -14.33 0.034264 60.181
           0.999309 -14.33 0.014009 75.057 0.034442 78.613
           0.034264 60.181 0.034442 78.613 0.998819 -27.64
6.20000000 0.014486 80.687 0.999304 -14.38 0.034374 60.085
           0.999304 -14.38 0.014054 75.008 0.034553 78.576
           0.034374 60.085 0.034553 78.576 0.998812 -27.73
6.22000000 0.014535 80.655 0.999300 -14.42 0.034483 59.988
           0.999300 -14.42 0.014098 74.960 0.034664 78.538
           0.034483 59.988 0.034664 78.538 0.998804 -27.82
6.24000000 0.014583 80.623 0.999295 -14.47 0.034593 59.891
           0.999295 -14.47 0.014142 74.912 0.034776 78.501
           0.034593 59.891 0.034776 78.501 0.998796 -27.91
6.26000000 0.014631 80.591 0.999291 -14.51 0.034703 59.795
           0.999291 -14.51 0.014186 74.864 0.034887 78.464
           0.034703 59.795 0.034887 78.464 0.998789 -27.99
6.28000000 0.014680 80.558 0.999286 -14.56 0.034812 59.698
           0.999286 -14.56 0.014230 74.815 0.034998 78.426
           0.034812 59.698 0.034998 78.426 0.998781 -28.08
6.30000000 0.014728 80.526 0.999282 -14.61 0.034922 59.602
           0.999282 -14.61 0.014275 74.767 0.035110 78.389
           0.034922 59.602 0.035110 78.389 0.998773 -28.17
6.32000000 0.014777 80.494 0.999277 -14.65 0.035032 59.505
           0.999277 -14.65 0.014319 74.719 0.035221 78.352
           0.035032 59.505 0.035221 78.352 0.998765 -28.26
6.34000000 0.014825 80.461 0.999273 -14.70 0.035141 59.408
           0.999273 -14.70 0.014363 74.670 0.035332 78.315
           0.035141 59.408 0.035332 78.315 0.998758 -28.35
6.36000000 0.014873 80.429 0.999268 -14.75 0.035251 59.312
           0.999268 -14.75 0.014407 74.622 0.035444 78.277
           0.035251 59.312 0.035444 78.277 0.998750 -28.44
6.38000000 0.014922 80.396 0.999264 -14.79 0.035360 59.215
           0.999264 -14.79 0.014451 74.574 0.035555 78.240
           0.035360 59.215 0.035555 78.240 0.998742 -28.53
6.40000000 0.014970 80.364 0.999259 -14.84 0.035470 59.118
           0.999259 -14.84 0.014495 74.525 0.035666 78.203
           0.035470 59.118 0.035666 78.203 0.998734 -28.62
6.42000000 0.015019 80.331 0.999254 -14.89 0.035579 59.022
           0.999254 -14.89 0.014540 74.477 0.035778 78.165
           0.035579 59.022 0.035778 78.165 0.998726 -28.71
6.44000000 0.015067 80.299 0.999250 -14.93 0.035689 58.925
           0.999250 -14.93 0.014584 74.429 0.035889 78.128
           0.035689 58.925 0.035889 78.128 0.998718 -28.80
6.46000000 0.015116 80.266 0.999245 -14.98 0.035798 58.829
           0.999245 -14.98 0.014628 74.380 0.036000 78.091
           0.035798 58.829 0.036000 78.091 0.998711 -28.89
6.48000000 0.015164 80.234 0.999240 -15.02 0.035908 58.732
           0.999240 -15.02 0.014672 74.332 0.036112 78.053
           0.035908 58.732 0.036112 78.053 0.998703 -28.98
6.50000000 0.015213 80.201 0.999236 -15.07 0.036017 58.635
           0.999236 -15.07 0.014716 74.284 0.036223 78.016
           0.036017 58.635 0.036223 78.016 0.998695 -29.07
6.52000000 0.015261 80.169 0.999231 -15.12 0.036127 58.539
           0.999231 -15.12 0.014760 74.236 0.036334 77.979
           0.036127 58.539 0.036334 77.979 0.998687 -29.16
6.54000000 0.015310 80.136 0.999226 -15.16 0.036236 58.442
           0.999226 -15.16 0.014804 74.187 0.036446 77.941
           0.036236 58.442 0.036446 77.941 0.998679 -29.25
6.56000000 0.015358 80.103 0.999222 -15.21 0.036345 58.346
           0.999222 -15.21 0.014848 74.139 0.036557 77.904
           0.036345 58.346 0.036557 77.904 0.998671 -29.34
6.58000000 0.015407 80.071 0.999217 -15.26 0.036455 58.249
           0.999217 -15.26 0.014892 74.091 0.036668 77.867
           0.036455 58.249 0.036668 77.867 0.998662 -29.43
6.60000000 0.015456 80.038 0.999212 -15.30 0.036564 58.152
           0.999212 -15.30 0.014936 74.042 0.036780 77.829
           0.036564 58.152 0.036780 77.829 0.998654 -29.52
6.62000000 0.015504 80.005 0.999207 -15.35 0.036674 58.056
           0.999207 -15.35 0.014980 73.994 0.036891 77.792
           0.036674 58.056 0.036891 77.792 0.998646 -29.61
6.64000000 0.015553 79.973 0.999203 -15.40 0.036783 57.959
           0.999203 -15.40 0.015024 73.946 0.037002 77.755
           0.036783 57.959 0.037002 77.755 0.998638 -29.70
6.66000000 0.015601 79.940 0.999198 -15.44 0.036892 57.862
           0.999198 -15.44 0.015068 73.897 0.037113 77.717
           0.036892 57.862 0.037113 77.717 0.998630 -29.79
6.68000000 0.015650 79.907 0.999193 -15.49 0.037002 57.766
           0.999193 -15.49 0.015112 73.849 0.037225 77.680
           0.037002 57.766 0.037225 77.680 0.998622 -29.88
6.70000000 0.015699 79.874 0.999188 -15.53 0.037111 57.669
           0.999188 -15.53 0.015156 73.801 0.037336 77.643
           0.037111 57.669 0.037336 77.643 0.998614 -29.97
6.72000000 0.015747 79.841 0.999183 -15.58 0.037220 57.573
           0.999183 -15.58 0.015200 73.752 0.037447 77.605
           0.037220 57.573 0.037447 77.605 0.998605 -30.06
6.74000000 0.015796 79.809 0.999179 -15.63 0.037330 57.476
           0.999179 -15.63 0.015244 73.704 0.037559 77.568
           0.037330 57.476 0.037559 77.568 0.998597 -30.15
6.76000000 0.015845 79.776 0.999174 -15.67 0.037439 57.379
           0.999174 -15.67 0.015288 73.655 0.037670 77.530
           0.037439 57.379 0.037670 77.530 0.998589 -30.24
6.78000000 0.015894 79.743 0.999169 -15.72 0.037548 57.283
           0.999169 -15.72 0.015332 73.607 0.037781 77.493
           0.037548 57.283 0.037781 77.493 0.998580 -30.33
6.80000000 0.015942 79.710 0.999164 -15.77 0.037658 57.186
           0.999164 -15.77 0.015376 73.559 0.037892 77.456
           0.037658 57.186 0.037892 77.456 0.998572 -30.42
6.82000000 0.015991 79.677 0.999159 -15.81 0.037767 57.089
           0.999159 -15.81 0.015420 73.510 0.038004 77.418
           0.037767 57.089 0.038004 77.418 0.998564 -30.51
6.84000000 0.016040 79.644 0.999154 -15.86 0.037876 56.993
           0.999154 -15.86 0.015464 73.462 0.038115 77.381
           0.037876 56.993 0.038115 77.381 0.998555 -30.60
6.86000000 0.016089 79.611 0.999149 -15.91 0.037985 56.896
           0.999149 -15.91 0.015507 73.414 0.038226 77.343
           0.037985 56.896 0.038226 77.343 0.998547 -30.69
6.88000000 0.016137 79.578 0.999144 -15.95 0.038095 56.799
           0.999144 -15.95 0.015551 73.365 0.038338 77.306
           0.038095 56.799 0.038338 77.306 0.998539 -30.77
6.90000000 0.016186 79.545 0.999139 -16.00 0.038204 56.703
           0.999139 -16.00 0.015595 73.317 0.038449 77.269
           0.038204 56.703 0.038449 77.269 0.998530 -30.86
6.92000000 0.016235 79.512 0.999134 -16.04 0.038313 56.606
           0.999134 -16.04 0.015639 73.269 0.038560 77.231
           0.038313 56.606 0.038560 77.231 0.998522 -30.95
6.94000000 0.016284 79.479 0.999129 -16.09 0.038422 56.510
           0.999129 -16.09 0.015683 73.220 0.038671 77.194
           0.038422 56.510 0.038671 77.194 0.998513 -31.04
6.96000000 0.016333 79.446 0.999124 -16.14 0.038531 56.413
           0.999124 -16.14 0.015727 73.172 0.038783 77.156
           0.038531 56.413 0.038783 77.156 0.998505 -31.13
6.98000000 0.016382 79.412 0.999119 -16.18 0.038641 56.316
           0.999119 -16.18 0.015770 73.123 0.038894 77.119
           0.038641 56.316 0.038894 77.119 0.998496 -31.22
7.00000000 0.016431 79.379 0.999114 -16.23 0.038750 56.220
           0.999114 -16.23 0.015814 73.075 0.039005 77.082
           0.038750 56.220 0.039005 77.082 0.998487 -31.31
7.02000000 0.016479 79.346 0.999109 -16.28 0.038859 56.123
           0.999109 -16.28 0.015858 73.027 0.039116 77.044
           0.038859 56.123 0.039116 77.044 0.998479 -31.40
7.04000000 0.016528 79.313 0.999104 -16.32 0.038968 56.026
           0.999104 -16.32 0.015902 72.978 0.039228 77.007
           0.038968 56.026 0.039228 77.007 0.998470 -31.49
7.06000000 0.016577 79.280 0.999099 -16.37 0.039077 55.930
           0.999099 -16.37 0.015946 72.930 0.039339 76.969
           0.039077 55.930 0.039339 76.969 0.998462 -31.58
7.08000000 0.016626 79.246 0.999094 -16.42 0.039186 55.833
           0.999094 -16.42 0.015989 72.881 0.039450 76.932
           0.039186 55.833 0.039450 76.932 0.998453 -31.67
7.10000000 0.016675 79.213 0.999089 -16.46 0.039295 55.736
           0.999089 -16.46 0.016033 72.833 0.039562 76.894
           0.039295 55.736 0.039562 76.894 0.998444 -31.76
7.12000000 0.016724 79.180 0.999083 -16.51 0.039404 55.640
           0.999083 -16.51 0.016077 72.785 0.039673 76.857
           0.039404 55.640 0.039673 76.857 0.998435 -31.85
7.14000000 0.016773 79.146 0.999078 -16.55 0.039513 55.543
           0.999078 -16.55 0.016121 72.736 0.039784 76.819
           0.039513 55.543 0.039784 76.819 0.998427 -31.94
7.16000000 0.016822 79.113 0.999073 -16.60 0.039622 55.446
           0.999073 -16.60 0.016164 72.688 0.039895 76.782
           0.039622 55.446 0.039895 76.782 0.998418 -32.03
7.18000000 0.016871 79.079 0.999068 -16.65 0.039731 55.350
           0.999068 -16.65 0.016208 72.639 0.040006 76.744
           0.039731 55.350 0.040006 76.744 0.998409 -32.12
7.20000000 0.016920 79.046 0.999063 -16.69 0.039840 55.253
           0.999063 -16.69 0.016252 72.591 0.040118 76.707
           0.039840 55.253 0.040118 76.707 0.998400 -32.21
!< P1 F=7.2 Eeff=(8.78709673 0.0) Z0=(48.6609923 0.0) R=0.0 C=0.00428958 
!< P2 F=7.2 Eeff=(9.50512083 0.0) Z0=(51.498522 0.0) R=0.0 C=0.00432012 
!< P3 F=7.2 Eeff=(7.90613127 0.0) Z0=(45.5419638 0.0) R=0.0 C=0.0043618 
7.22000000 0.016969 79.013 0.999058 -16.74 0.039949 55.157
           0.999058 -16.74 0.016295 72.543 0.040229 76.669
           0.039949 55.157 0.040229 76.669 0.998392 -32.30
7.24000000 0.017018 78.979 0.999052 -16.79 0.040058 55.060
           0.999052 -16.79 0.016339 72.494 0.040340 76.632
           0.040058 55.060 0.040340 76.632 0.998383 -32.39