! Sonnet Data File
! From: em Version : 15.52
! From Project: CPW_gap_coupler_3port_1um_FL_TS_6um_finer
! Data is De-embedded 
! Data File Written: 08/14/2018 18:07:51
!< HDATE 08/14/2018 17:46:56
!< MDATE 08/14/2018 17:46:56
!< PARAMS
!< gap = 2.0
!< cpwS = 5.0
!< cpwS1 = 5.0
!< feedW = 12.0
!< feedS1 = 5.0
!< cond_length = 44.0
!< inner_length = 26.0
!< hangerW = 12.0000175
!< open_gap = 22.0
!< coupler_length = 50.0
!< END PARAMS
# GHZ S MA R 50.00000
4.00000000 0.004018 82.648 0.999991 -9.085 0.001224 88.008
           0.999991 -9.085 0.004018 79.203 0.001224 80.731
           0.001224 88.008 0.001224 80.731 0.999999 -2.405
!< P1 F=4.0 Eeff=(8.78704973 0.0) Z0=(48.6608892 0.0) R=0.0 C=0.00428958 
!< P2 F=4.0 Eeff=(8.7855435 0.0) Z0=(48.6548225 0.0) R=0.0 C=0.00428951 
!< P3 F=4.0 Eeff=(8.01226334 0.0) Z0=(52.9545136 0.0) R=0.0 C=0.00476021 
4.02000000 0.004038 82.611 0.999991 -9.130 0.001230 87.998
           0.999991 -9.130 0.004038 79.149 0.001230 80.685
           0.001230 87.998 0.001230 80.685 0.999998 -2.417
4.04000000 0.004058 82.575 0.999991 -9.176 0.001236 87.988
           0.999991 -9.176 0.004058 79.095 0.001236 80.639
           0.001236 87.988 0.001236 80.639 0.999998 -2.429
4.06000000 0.004078 82.538 0.999991 -9.221 0.001242 87.978
           0.999991 -9.221 0.004078 79.041 0.001242 80.592
           0.001242 87.978 0.001242 80.592 0.999998 -2.441
4.08000000 0.004098 82.501 0.999991 -9.267 0.001249 87.968
           0.999991 -9.267 0.004098 78.987 0.001248 80.546
           0.001249 87.968 0.001248 80.546 0.999998 -2.453
4.10000000 0.004118 82.464 0.999991 -9.312 0.001255 87.958
           0.999991 -9.312 0.004118 78.933 0.001254 80.499
           0.001255 87.958 0.001254 80.499 0.999998 -2.465
4.12000000 0.004138 82.428 0.999991 -9.358 0.001261 87.948
           0.999991 -9.358 0.004138 78.879 0.001260 80.453
           0.001261 87.948 0.001260 80.453 0.999998 -2.477
4.14000000 0.004158 82.391 0.999991 -9.403 0.001267 87.938
           0.999991 -9.403 0.004158 78.825 0.001266 80.407
           0.001267 87.938 0.001266 80.407 0.999998 -2.489
4.16000000 0.004177 82.354 0.999990 -9.448 0.001273 87.928
           0.999990 -9.448 0.004178 78.771 0.001272 80.360
           0.001273 87.928 0.001272 80.360 0.999998 -2.501
4.18000000 0.004197 82.317 0.999990 -9.494 0.001279 87.918
           0.999990 -9.494 0.004197 78.717 0.001279 80.314
           0.001279 87.918 0.001279 80.314 0.999998 -2.513
4.20000000 0.004217 82.281 0.999990 -9.539 0.001285 87.908
           0.999990 -9.539 0.004217 78.662 0.001285 80.268
           0.001285 87.908 0.001285 80.268 0.999998 -2.525
4.22000000 0.004237 82.244 0.999990 -9.585 0.001291 87.898
           0.999990 -9.585 0.004237 78.608 0.001291 80.221
           0.001291 87.898 0.001291 80.221 0.999998 -2.537
4.24000000 0.004257 82.207 0.999990 -9.630 0.001298 87.888
           0.999990 -9.630 0.004257 78.554 0.001297 80.175
           0.001298 87.888 0.001297 80.175 0.999998 -2.549
4.26000000 0.004277 82.170 0.999990 -9.676 0.001304 87.878
           0.999990 -9.676 0.004277 78.500 0.001303 80.129
           0.001304 87.878 0.001303 80.129 0.999998 -2.561
4.28000000 0.004297 82.134 0.999990 -9.721 0.001310 87.868
           0.999990 -9.721 0.004297 78.446 0.001309 80.082
           0.001310 87.868 0.001309 80.082 0.999998 -2.573
4.30000000 0.004317 82.097 0.999990 -9.766 0.001316 87.858
           0.999990 -9.766 0.004317 78.392 0.001315 80.036
           0.001316 87.858 0.001315 80.036 0.999998 -2.585
4.32000000 0.004337 82.060 0.999990 -9.812 0.001322 87.848
           0.999990 -9.812 0.004337 78.338 0.001321 79.990
           0.001322 87.848 0.001321 79.990 0.999998 -2.597
4.34000000 0.004356 82.023 0.999990 -9.857 0.001328 87.838
           0.999990 -9.857 0.004357 78.284 0.001328 79.943
           0.001328 87.838 0.001328 79.943 0.999998 -2.609
4.36000000 0.004376 81.987 0.999989 -9.903 0.001334 87.828
           0.999989 -9.903 0.004376 78.230 0.001334 79.897
           0.001334 87.828 0.001334 79.897 0.999998 -2.621
4.38000000 0.004396 81.950 0.999989 -9.948 0.001340 87.818
           0.999989 -9.948 0.004396 78.176 0.001340 79.851
           0.001340 87.818 0.001340 79.851 0.999998 -2.634
4.40000000 0.004416 81.913 0.999989 -9.994 0.001347 87.808
           0.999989 -9.994 0.004416 78.122 0.001346 79.804
           0.001347 87.808 0.001346 79.804 0.999998 -2.646
4.42000000 0.004436 81.877 0.999989 -10.04 0.001353 87.798
           0.999989 -10.04 0.004436 78.068 0.001352 79.758
           0.001353 87.798 0.001352 79.758 0.999998 -2.658
4.44000000 0.004456 81.840 0.999989 -10.08 0.001359 87.788
           0.999989 -10.08 0.004456 78.014 0.001358 79.712
           0.001359 87.788 0.001358 79.712 0.999998 -2.670
4.46000000 0.004476 81.803 0.999989 -10.13 0.001365 87.778
           0.999989 -10.13 0.004476 77.960 0.001364 79.665
           0.001365 87.778 0.001364 79.665 0.999998 -2.682
4.48000000 0.004495 81.766 0.999989 -10.18 0.001371 87.768
           0.999989 -10.18 0.004496 77.906 0.001370 79.619
           0.001371 87.768 0.001370 79.619 0.999998 -2.694
4.50000000 0.004515 81.730 0.999989 -10.22 0.001377 87.758
           0.999989 -10.22 0.004515 77.852 0.001376 79.573
           0.001377 87.758 0.001376 79.573 0.999998 -2.706
4.52000000 0.004535 81.693 0.999989 -10.27 0.001383 87.748
           0.999989 -10.27 0.004535 77.798 0.001383 79.526
           0.001383 87.748 0.001383 79.526 0.999998 -2.718
4.54000000 0.004555 81.656 0.999989 -10.31 0.001389 87.738
           0.999989 -10.31 0.004555 77.744 0.001389 79.480
           0.001389 87.738 0.001389 79.480 0.999998 -2.730
4.56000000 0.004575 81.620 0.999989 -10.36 0.001396 87.728
           0.999989 -10.36 0.004575 77.690 0.001395 79.434
           0.001396 87.728 0.001395 79.434 0.999998 -2.742
4.58000000 0.004595 81.583 0.999988 -10.40 0.001402 87.718
           0.999988 -10.40 0.004595 77.636 0.001401 79.387
           0.001402 87.718 0.001401 79.387 0.999998 -2.754
4.60000000 0.004614 81.546 0.999988 -10.45 0.001408 87.708
           0.999988 -10.45 0.004615 77.582 0.001407 79.341
           0.001408 87.708 0.001407 79.341 0.999998 -2.766
4.62000000 0.004634 81.509 0.999988 -10.49 0.001414 87.698
           0.999988 -10.49 0.004634 77.528 0.001413 79.295
           0.001414 87.698 0.001413 79.295 0.999998 -2.778
4.64000000 0.004654 81.473 0.999988 -10.54 0.001420 87.688
           0.999988 -10.54 0.004654 77.474 0.001419 79.248
           0.001420 87.688 0.001419 79.248 0.999998 -2.790
4.66000000 0.004674 81.436 0.999988 -10.58 0.001426 87.678
           0.999988 -10.58 0.004674 77.420 0.001425 79.202
           0.001426 87.678 0.001425 79.202 0.999998 -2.802
4.68000000 0.004694 81.399 0.999988 -10.63 0.001432 87.668
           0.999988 -10.63 0.004694 77.366 0.001432 79.156
           0.001432 87.668 0.001432 79.156 0.999998 -2.814
4.70000000 0.004713 81.363 0.999988 -10.67 0.001438 87.658
           0.999988 -10.67 0.004714 77.312 0.001438 79.109
           0.001438 87.658 0.001438 79.109 0.999998 -2.826
4.72000000 0.004733 81.326 0.999988 -10.72 0.001445 87.648
           0.999988 -10.72 0.004733 77.258 0.001444 79.063
           0.001445 87.648 0.001444 79.063 0.999998 -2.838
4.74000000 0.004753 81.289 0.999988 -10.77 0.001451 87.638
           0.999988 -10.77 0.004753 77.204 0.001450 79.017
           0.001451 87.638 0.001450 79.017 0.999998 -2.850
4.76000000 0.004773 81.253 0.999988 -10.81 0.001457 87.628
           0.999988 -10.81 0.004773 77.150 0.001456 78.970
           0.001457 87.628 0.001456 78.970 0.999998 -2.862
4.78000000 0.004793 81.216 0.999987 -10.86 0.001463 87.618
           0.999987 -10.86 0.004793 77.096 0.001462 78.924
           0.001463 87.618 0.001462 78.924 0.999998 -2.874
4.80000000 0.004812 81.179 0.999987 -10.90 0.001469 87.608
           0.999987 -10.90 0.004813 77.042 0.001468 78.877
           0.001469 87.608 0.001468 78.877 0.999998 -2.886
4.82000000 0.004832 81.143 0.999987 -10.95 0.001475 87.598
           0.999987 -10.95 0.004832 76.988 0.001474 78.831
           0.001475 87.598 0.001474 78.831 0.999998 -2.898
4.84000000 0.004852 81.106 0.999987 -10.99 0.001481 87.588
           0.999987 -10.99 0.004852 76.934 0.001480 78.785
           0.001481 87.588 0.001480 78.785 0.999998 -2.910
4.86000000 0.004872 81.069 0.999987 -11.04 0.001487 87.578
           0.999987 -11.04 0.004872 76.880 0.001487 78.738
           0.001487 87.578 0.001487 78.738 0.999998 -2.922
4.88000000 0.004892 81.033 0.999987 -11.08 0.001494 87.568
           0.999987 -11.08 0.004892 76.826 0.001493 78.692
           0.001494 87.568 0.001493 78.692 0.999998 -2.934
!< P1 F=4.88 Eeff=(8.78705999 0.0) Z0=(48.6609117 0.0) R=0.0 C=0.00428958 
!< P2 F=4.88 Eeff=(8.78555374 0.0) Z0=(48.654845 0.0) R=0.0 C=0.00428951 
!< P3 F=4.88 Eeff=(8.01227508 0.0) Z0=(52.9544956 0.0) R=0.0 C=0.00476021 
4.90000000 0.004911 80.996 0.999987 -11.13 0.001500 87.558
           0.999987 -11.13 0.004912 76.772 0.001499 78.646
           0.001500 87.558 0.001499 78.646 0.999998 -2.946
4.92000000 0.004931 80.959 0.999987 -11.17 0.001506 87.548
           0.999987 -11.17 0.004931 76.718 0.001505 78.599
           0.001506 87.548 0.001505 78.599 0.999998 -2.958
4.94000000 0.004951 80.922 0.999987 -11.22 0.001512 87.538
           0.999987 -11.22 0.004951 76.664 0.001511 78.553
           0.001512 87.538 0.001511 78.553 0.999998 -2.970
4.96000000 0.004971 80.886 0.999987 -11.27 0.001518 87.528
           0.999987 -11.27 0.004971 76.610 0.001517 78.507
           0.001518 87.528 0.001517 78.507 0.999998 -2.982
4.98000000 0.004990 80.849 0.999986 -11.31 0.001524 87.518
           0.999986 -11.31 0.004991 76.556 0.001523 78.460
           0.001524 87.518 0.001523 78.460 0.999998 -2.994
5.00000000 0.005010 80.812 0.999986 -11.36 0.001530 87.508
           0.999986 -11.36 0.005010 76.502 0.001529 78.414
           0.001530 87.508 0.001529 78.414 0.999998 -3.006
5.02000000 0.005030 80.776 0.999986 -11.40 0.001536 87.498
           0.999986 -11.40 0.005030 76.448 0.001536 78.368
           0.001536 87.498 0.001536 78.368 0.999998 -3.018
5.04000000 0.005050 80.739 0.999986 -11.45 0.001543 87.488
           0.999986 -11.45 0.005050 76.394 0.001542 78.321
           0.001543 87.488 0.001542 78.321 0.999998 -3.030
5.06000000 0.005069 80.702 0.999986 -11.49 0.001549 87.478
           0.999986 -11.49 0.005070 76.340 0.001548 78.275
           0.001549 87.478 0.001548 78.275 0.999998 -3.042
5.08000000 0.005089 80.666 0.999986 -11.54 0.001555 87.468
           0.999986 -11.54 0.005089 76.286 0.001554 78.229
           0.001555 87.468 0.001554 78.229 0.999998 -3.054
5.10000000 0.005109 80.629 0.999986 -11.58 0.001561 87.458
           0.999986 -11.58 0.005109 76.232 0.001560 78.182
           0.001561 87.458 0.001560 78.182 0.999998 -3.066
5.12000000 0.005129 80.592 0.999986 -11.63 0.001567 87.448
           0.999986 -11.63 0.005129 76.178 0.001566 78.136
           0.001567 87.448 0.001566 78.136 0.999998 -3.078
5.14000000 0.005148 80.556 0.999986 -11.67 0.001573 87.438
           0.999986 -11.67 0.005149 76.124 0.001572 78.090
           0.001573 87.438 0.001572 78.090 0.999998 -3.090
5.16000000 0.005168 80.519 0.999985 -11.72 0.001579 87.428
           0.999985 -11.72 0.005168 76.070 0.001578 78.043
           0.001579 87.428 0.001578 78.043 0.999998 -3.103
5.18000000 0.005188 80.482 0.999985 -11.77 0.001585 87.418
           0.999985 -11.77 0.005188 76.016 0.001584 77.997
           0.001585 87.418 0.001584 77.997 0.999997 -3.115
5.20000000 0.005207 80.446 0.999985 -11.81 0.001592 87.408
           0.999985 -11.81 0.005208 75.962 0.001591 77.951
           0.001592 87.408 0.001591 77.951 0.999997 -3.127
5.22000000 0.005227 80.409 0.999985 -11.86 0.001598 87.398
           0.999985 -11.86 0.005228 75.908 0.001597 77.904
           0.001598 87.398 0.001597 77.904 0.999997 -3.139
5.24000000 0.005247 80.372 0.999985 -11.90 0.001604 87.388
           0.999985 -11.90 0.005247 75.854 0.001603 77.858
           0.001604 87.388 0.001603 77.858 0.999997 -3.151
5.26000000 0.005267 80.336 0.999985 -11.95 0.001610 87.378
           0.999985 -11.95 0.005267 75.800 0.001609 77.812
           0.001610 87.378 0.001609 77.812 0.999997 -3.163
5.28000000 0.005286 80.299 0.999985 -11.99 0.001616 87.368
           0.999985 -11.99 0.005287 75.746 0.001615 77.765
           0.001616 87.368 0.001615 77.765 0.999997 -3.175
5.30000000 0.005306 80.262 0.999985 -12.04 0.001622 87.358
           0.999985 -12.04 0.005306 75.692 0.001621 77.719
           0.001622 87.358 0.001621 77.719 0.999997 -3.187
5.32000000 0.005326 80.226 0.999985 -12.08 0.001628 87.348
           0.999985 -12.08 0.005326 75.638 0.001627 77.673
           0.001628 87.348 0.001627 77.673 0.999997 -3.199
5.34000000 0.005345 80.189 0.999984 -12.13 0.001635 87.338
           0.999984 -12.13 0.005346 75.584 0.001633 77.626
           0.001635 87.338 0.001633 77.626 0.999997 -3.211
5.36000000 0.005365 80.152 0.999984 -12.17 0.001641 87.328
           0.999984 -12.17 0.005365 75.530 0.001640 77.580
           0.001641 87.328 0.001640 77.580 0.999997 -3.223
5.38000000 0.005385 80.116 0.999984 -12.22 0.001647 87.318
           0.999984 -12.22 0.005385 75.476 0.001646 77.534
           0.001647 87.318 0.001646 77.534 0.999997 -3.235
5.40000000 0.005404 80.079 0.999984 -12.26 0.001653 87.308
           0.999984 -12.26 0.005405 75.422 0.001652 77.487
           0.001653 87.308 0.001652 77.487 0.999997 -3.247
5.42000000 0.005424 80.042 0.999984 -12.31 0.001659 87.298
           0.999984 -12.31 0.005425 75.368 0.001658 77.441
           0.001659 87.298 0.001658 77.441 0.999997 -3.259
5.44000000 0.005444 80.006 0.999984 -12.36 0.001665 87.288
           0.999984 -12.36 0.005444 75.313 0.001664 77.395
           0.001665 87.288 0.001664 77.395 0.999997 -3.271
5.46000000 0.005464 79.969 0.999984 -12.40 0.001671 87.278
           0.999984 -12.40 0.005464 75.259 0.001670 77.348
           0.001671 87.278 0.001670 77.348 0.999997 -3.283
5.48000000 0.005483 79.932 0.999984 -12.45 0.001677 87.268
           0.999984 -12.45 0.005484 75.205 0.001676 77.302
           0.001677 87.268 0.001676 77.302 0.999997 -3.295
5.50000000 0.005503 79.896 0.999984 -12.49 0.001684 87.258
           0.999984 -12.49 0.005503 75.151 0.001682 77.256
           0.001684 87.258 0.001682 77.256 0.999997 -3.307
5.52000000 0.005523 79.859 0.999983 -12.54 0.001690 87.248
           0.999983 -12.54 0.005523 75.097 0.001688 77.209
           0.001690 87.248 0.001688 77.209 0.999997 -3.319
5.54000000 0.005542 79.822 0.999983 -12.58 0.001696 87.238
           0.999983 -12.58 0.005543 75.043 0.001695 77.163
           0.001696 87.238 0.001695 77.163 0.999997 -3.331
5.56000000 0.005562 79.786 0.999983 -12.63 0.001702 87.228
           0.999983 -12.63 0.005562 74.989 0.001701 77.116
           0.001702 87.228 0.001701 77.116 0.999997 -3.343
5.58000000 0.005582 79.749 0.999983 -12.67 0.001708 87.218
           0.999983 -12.67 0.005582 74.935 0.001707 77.070
           0.001708 87.218 0.001707 77.070 0.999997 -3.355
5.60000000 0.005601 79.712 0.999983 -12.72 0.001714 87.208
           0.999983 -12.72 0.005602 74.881 0.001713 77.024
           0.001714 87.208 0.001713 77.024 0.999997 -3.367
5.62000000 0.005621 79.676 0.999983 -12.76 0.001720 87.198
           0.999983 -12.76 0.005621 74.827 0.001719 76.977
           0.001720 87.198 0.001719 76.977 0.999997 -3.379
5.64000000 0.005640 79.639 0.999983 -12.81 0.001726 87.188
           0.999983 -12.81 0.005641 74.773 0.001725 76.931
           0.001726 87.188 0.001725 76.931 0.999997 -3.391
5.66000000 0.005660 79.602 0.999983 -12.86 0.001733 87.178
           0.999983 -12.86 0.005661 74.719 0.001731 76.885
           0.001733 87.178 0.001731 76.885 0.999997 -3.403
5.68000000 0.005680 79.565 0.999982 -12.90 0.001739 87.168
           0.999982 -12.90 0.005680 74.665 0.001737 76.838
           0.001739 87.168 0.001737 76.838 0.999997 -3.415
5.70000000 0.005699 79.529 0.999982 -12.95 0.001745 87.158
           0.999982 -12.95 0.005700 74.611 0.001744 76.792
           0.001745 87.158 0.001744 76.792 0.999997 -3.427
5.72000000 0.005719 79.492 0.999982 -12.99 0.001751 87.148
           0.999982 -12.99 0.005719 74.556 0.001750 76.746
           0.001751 87.148 0.001750 76.746 0.999997 -3.439
5.74000000 0.005739 79.455 0.999982 -13.04 0.001757 87.138
           0.999982 -13.04 0.005739 74.502 0.001756 76.699
           0.001757 87.138 0.001756 76.699 0.999997 -3.451
5.76000000 0.005758 79.419 0.999982 -13.08 0.001763 87.128
           0.999982 -13.08 0.005759 74.448 0.001762 76.653
           0.001763 87.128 0.001762 76.653 0.999997 -3.463
5.78000000 0.005778 79.382 0.999982 -13.13 0.001769 87.118
           0.999982 -13.13 0.005778 74.394 0.001768 76.607
           0.001769 87.118 0.001768 76.607 0.999997 -3.475
5.80000000 0.005798 79.345 0.999982 -13.17 0.001776 87.108
           0.999982 -13.17 0.005798 74.340 0.001774 76.560
           0.001776 87.108 0.001774 76.560 0.999997 -3.487
5.82000000 0.005817 79.309 0.999982 -13.22 0.001782 87.098
           0.999982 -13.22 0.005818 74.286 0.001780 76.514
           0.001782 87.098 0.001780 76.514 0.999997 -3.499
5.84000000 0.005837 79.272 0.999981 -13.26 0.001788 87.088
           0.999981 -13.26 0.005837 74.232 0.001786 76.468
           0.001788 87.088 0.001786 76.468 0.999997 -3.511
5.86000000 0.005856 79.235 0.999981 -13.31 0.001794 87.078
           0.999981 -13.31 0.005857 74.178 0.001792 76.421
           0.001794 87.078 0.001792 76.421 0.999997 -3.523
5.88000000 0.005876 79.198 0.999981 -13.35 0.001800 87.068
           0.999981 -13.35 0.005876 74.124 0.001799 76.375
           0.001800 87.068 0.001799 76.375 0.999997 -3.535
5.90000000 0.005896 79.162 0.999981 -13.40 0.001806 87.058
           0.999981 -13.40 0.005896 74.069 0.001805 76.329
           0.001806 87.058 0.001805 76.329 0.999997 -3.547
5.92000000 0.005915 79.125 0.999981 -13.45 0.001812 87.048
           0.999981 -13.45 0.005916 74.015 0.001811 76.282
           0.001812 87.048 0.001811 76.282 0.999997 -3.560
5.94000000 0.005935 79.088 0.999981 -13.49 0.001818 87.038
           0.999981 -13.49 0.005935 73.961 0.001817 76.236
           0.001818 87.038 0.001817 76.236 0.999997 -3.572
5.96000000 0.005954 79.052 0.999981 -13.54 0.001825 87.028
           0.999981 -13.54 0.005955 73.907 0.001823 76.190
           0.001825 87.028 0.001823 76.190 0.999997 -3.584
5.98000000 0.005974 79.015 0.999980 -13.58 0.001831 87.018
           0.999980 -13.58 0.005974 73.853 0.001829 76.143
           0.001831 87.018 0.001829 76.143 0.999997 -3.596
6.00000000 0.005994 78.978 0.999980 -13.63 0.001837 87.008
           0.999980 -13.63 0.005994 73.799 0.001835 76.097
           0.001837 87.008 0.001835 76.097 0.999997 -3.608
!< P1 F=6.0 Eeff=(8.78707598 0.0) Z0=(48.6609468 0.0) R=0.0 C=0.00428958 
!< P2 F=6.0 Eeff=(8.78556973 0.0) Z0=(48.65488 0.0) R=0.0 C=0.00428951 
!< P3 F=6.0 Eeff=(8.0122928 0.0) Z0=(52.9544655 0.0) R=0.0 C=0.00476022 
6.02000000 0.006013 78.942 0.999980 -13.67 0.001843 86.998
           0.999980 -13.67 0.006014 73.745 0.001841 76.051
           0.001843 86.998 0.001841 76.051 0.999997 -3.620
6.04000000 0.006033 78.905 0.999980 -13.72 0.001849 86.988
           0.999980 -13.72 0.006033 73.691 0.001848 76.004
           0.001849 86.988 0.001848 76.004 0.999997 -3.632
6.06000000 0.006052 78.868 0.999980 -13.76 0.001855 86.978
           0.999980 -13.76 0.006053 73.637 0.001854 75.958
           0.001855 86.978 0.001854 75.958 0.999997 -3.644
6.08000000 0.006072 78.832 0.999980 -13.81 0.001861 86.968
           0.999980 -13.81 0.006072 73.583 0.001860 75.912
           0.001861 86.968 0.001860 75.912 0.999997 -3.656
6.10000000 0.006091 78.795 0.999980 -13.85 0.001868 86.958
           0.999980 -13.85 0.006092 73.529 0.001866 75.865
           0.001868 86.958 0.001866 75.865 0.999997 -3.668
6.12000000 0.006111 78.759 0.999980 -13.90 0.001874 86.948
           0.999980 -13.90 0.006111 73.475 0.001872 75.819
           0.001874 86.948 0.001872 75.819 0.999996 -3.680
6.14000000 0.006130 78.722 0.999979 -13.95 0.001880 86.938
           0.999979 -13.95 0.006131 73.420 0.001878 75.773
           0.001880 86.938 0.001878 75.773 0.999996 -3.692
6.16000000 0.006150 78.686 0.999979 -13.99 0.001886 86.928
           0.999979 -13.99 0.006150 73.366 0.001884 75.726
           0.001886 86.928 0.001884 75.726 0.999996 -3.704
6.18000000 0.006169 78.649 0.999979 -14.04 0.001892 86.918
           0.999979 -14.04 0.006170 73.312 0.001890 75.680
           0.001892 86.918 0.001890 75.680 0.999996 -3.716
6.20000000 0.006189 78.612 0.999979 -14.08 0.001898 86.908
           0.999979 -14.08 0.006190 73.258 0.001896 75.634
           0.001898 86.908 0.001896 75.634 0.999996 -3.728
6.22000000 0.006209 78.576 0.999979 -14.13 0.001904 86.897
           0.999979 -14.13 0.006209 73.204 0.001903 75.587
           0.001904 86.897 0.001903 75.587 0.999996 -3.740
6.24000000 0.006228 78.539 0.999979 -14.17 0.001910 86.887
           0.999979 -14.17 0.006229 73.150 0.001909 75.541
           0.001910 86.887 0.001909 75.541 0.999996 -3.752
6.26000000 0.006248 78.503 0.999979 -14.22 0.001917 86.877
           0.999979 -14.22 0.006248 73.096 0.001915 75.495
           0.001917 86.877 0.001915 75.495 0.999996 -3.764
6.28000000 0.006267 78.466 0.999979 -14.26 0.001923 86.867
           0.999979 -14.26 0.006268 73.042 0.001921 75.448
           0.001923 86.867 0.001921 75.448 0.999996 -3.776
6.30000000 0.006287 78.429 0.999978 -14.31 0.001929 86.857
           0.999978 -14.31 0.006287 72.988 0.001927 75.402
           0.001929 86.857 0.001927 75.402 0.999996 -3.788
6.32000000 0.006306 78.393 0.999978 -14.35 0.001935 86.847
           0.999978 -14.35 0.006307 72.934 0.001933 75.356
           0.001935 86.847 0.001933 75.356 0.999996 -3.800
6.34000000 0.006326 78.356 0.999978 -14.40 0.001941 86.837
           0.999978 -14.40 0.006326 72.880 0.001939 75.309
           0.001941 86.837 0.001939 75.309 0.999996 -3.812
6.36000000 0.006345 78.320 0.999978 -14.45 0.001947 86.827
           0.999978 -14.45 0.006346 72.826 0.001945 75.263
           0.001947 86.827 0.001945 75.263 0.999996 -3.824
6.38000000 0.006365 78.283 0.999978 -14.49 0.001953 86.817
           0.999978 -14.49 0.006365 72.772 0.001952 75.217
           0.001953 86.817 0.001952 75.217 0.999996 -3.836
6.40000000 0.006384 78.247 0.999978 -14.54 0.001960 86.807
           0.999978 -14.54 0.006385 72.718 0.001958 75.170
           0.001960 86.807 0.001958 75.170 0.999996 -3.848
6.42000000 0.006404 78.210 0.999978 -14.58 0.001966 86.797
           0.999978 -14.58 0.006404 72.664 0.001964 75.124
           0.001966 86.797 0.001964 75.124 0.999996 -3.860
6.44000000 0.006423 78.173 0.999978 -14.63 0.001972 86.787
           0.999978 -14.63 0.006424 72.610 0.001970 75.078
           0.001972 86.787 0.001970 75.078 0.999996 -3.872
6.46000000 0.006442 78.137 0.999977 -14.67 0.001978 86.777
           0.999977 -14.67 0.006443 72.555 0.001976 75.031
           0.001978 86.777 0.001976 75.031 0.999996 -3.884
6.48000000 0.006462 78.100 0.999977 -14.72 0.001984 86.767
           0.999977 -14.72 0.006462 72.501 0.001982 74.985
           0.001984 86.767 0.001982 74.985 0.999996 -3.896
6.50000000 0.006481 78.064 0.999977 -14.76 0.001990 86.757
           0.999977 -14.76 0.006482 72.447 0.001988 74.939
           0.001990 86.757 0.001988 74.939 0.999996 -3.908
6.52000000 0.006501 78.027 0.999977 -14.81 0.001996 86.747
           0.999977 -14.81 0.006501 72.393 0.001994 74.892
           0.001996 86.747 0.001994 74.892 0.999996 -3.920
6.54000000 0.006520 77.991 0.999977 -14.85 0.002003 86.737
           0.999977 -14.85 0.006521 72.339 0.002000 74.846
           0.002003 86.737 0.002000 74.846 0.999996 -3.932
6.56000000 0.006540 77.954 0.999977 -14.90 0.002009 86.727
           0.999977 -14.90 0.006540 72.285 0.002007 74.800
           0.002009 86.727 0.002007 74.800 0.999996 -3.944
6.58000000 0.006559 77.917 0.999977 -14.94 0.002015 86.717
           0.999977 -14.94 0.006560 72.231 0.002013 74.753
           0.002015 86.717 0.002013 74.753 0.999996 -3.956
6.60000000 0.006579 77.881 0.999976 -14.99 0.002021 86.707
           0.999976 -14.99 0.006579 72.177 0.002019 74.707
           0.002021 86.707 0.002019 74.707 0.999996 -3.968
6.62000000 0.006598 77.844 0.999976 -15.04 0.002027 86.697
           0.999976 -15.04 0.006599 72.123 0.002025 74.661
           0.002027 86.697 0.002025 74.661 0.999996 -3.980
6.64000000 0.006617 77.808 0.999976 -15.08 0.002033 86.687
           0.999976 -15.08 0.006618 72.069 0.002031 74.614
           0.002033 86.687 0.002031 74.614 0.999996 -3.992
6.66000000 0.006637 77.771 0.999976 -15.13 0.002039 86.677
           0.999976 -15.13 0.006637 72.015 0.002037 74.568
           0.002039 86.677 0.002037 74.568 0.999996 -4.005
6.68000000 0.006656 77.734 0.999976 -15.17 0.002045 86.667
           0.999976 -15.17 0.006657 71.961 0.002043 74.522
           0.002045 86.667 0.002043 74.522 0.999996 -4.017
6.70000000 0.006676 77.698 0.999976 -15.22 0.002052 86.657
           0.999976 -15.22 0.006676 71.906 0.002049 74.475
           0.002052 86.657 0.002049 74.475 0.999996 -4.029
6.72000000 0.006695 77.661 0.999976 -15.26 0.002058 86.647
           0.999976 -15.26 0.006696 71.852 0.002056 74.429
           0.002058 86.647 0.002056 74.429 0.999996 -4.041
6.74000000 0.006715 77.625 0.999976 -15.31 0.002064 86.637
           0.999976 -15.31 0.006715 71.798 0.002062 74.383
           0.002064 86.637 0.002062 74.383 0.999996 -4.053
6.76000000 0.006734 77.588 0.999975 -15.35 0.002070 86.627
           0.999975 -15.35 0.006735 71.744 0.002068 74.336
           0.002070 86.627 0.002068 74.336 0.999996 -4.065
6.78000000 0.006753 77.552 0.999975 -15.40 0.002076 86.616
           0.999975 -15.40 0.006754 71.690 0.002074 74.290
           0.002076 86.616 0.002074 74.290 0.999996 -4.077
6.80000000 0.006773 77.515 0.999975 -15.44 0.002082 86.606
           0.999975 -15.44 0.006773 71.636 0.002080 74.244
           0.002082 86.606 0.002080 74.244 0.999996 -4.089
6.82000000 0.006792 77.478 0.999975 -15.49 0.002088 86.596
           0.999975 -15.49 0.006793 71.582 0.002086 74.197
           0.002088 86.596 0.002086 74.197 0.999996 -4.101
6.84000000 0.006812 77.442 0.999975 -15.54 0.002095 86.586
           0.999975 -15.54 0.006812 71.528 0.002092 74.151
           0.002095 86.586 0.002092 74.151 0.999996 -4.113
6.86000000 0.006831 77.405 0.999975 -15.58 0.002101 86.576
           0.999975 -15.58 0.006831 71.474 0.002098 74.104
           0.002101 86.576 0.002098 74.104 0.999996 -4.125
6.88000000 0.006850 77.369 0.999975 -15.63 0.002107 86.566
           0.999975 -15.63 0.006851 71.420 0.002104 74.058
           0.002107 86.566 0.002104 74.058 0.999996 -4.137
6.90000000 0.006870 77.332 0.999974 -15.67 0.002113 86.556
           0.999974 -15.67 0.006870 71.366 0.002111 74.012
           0.002113 86.556 0.002111 74.012 0.999996 -4.149
6.92000000 0.006889 77.295 0.999974 -15.72 0.002119 86.546
           0.999974 -15.72 0.006890 71.311 0.002117 73.965
           0.002119 86.546 0.002117 73.965 0.999996 -4.161
6.94000000 0.006908 77.259 0.999974 -15.76 0.002125 86.536
           0.999974 -15.76 0.006909 71.257 0.002123 73.919
           0.002125 86.536 0.002123 73.919 0.999995 -4.173
6.96000000 0.006928 77.222 0.999974 -15.81 0.002131 86.526
           0.999974 -15.81 0.006928 71.203 0.002129 73.873
           0.002131 86.526 0.002129 73.873 0.999995 -4.185
6.98000000 0.006947 77.186 0.999974 -15.85 0.002138 86.516
           0.999974 -15.85 0.006948 71.149 0.002135 73.826
           0.002138 86.516 0.002135 73.826 0.999995 -4.197
7.00000000 0.006967 77.149 0.999974 -15.90 0.002144 86.506
           0.999974 -15.90 0.006967 71.095 0.002141 73.780
           0.002144 86.506 0.002141 73.780 0.999995 -4.209
7.02000000 0.006986 77.112 0.999974 -15.94 0.002150 86.496
           0.999974 -15.94 0.006986 71.041 0.002147 73.734
           0.002150 86.496 0.002147 73.734 0.999995 -4.221
7.04000000 0.007005 77.076 0.999973 -15.99 0.002156 86.486
           0.999973 -15.99 0.007006 70.987 0.002153 73.687
           0.002156 86.486 0.002153 73.687 0.999995 -4.233
7.06000000 0.007025 77.039 0.999973 -16.03 0.002162 86.476
           0.999973 -16.03 0.007025 70.933 0.002159 73.641
           0.002162 86.476 0.002159 73.641 0.999995 -4.245
7.08000000 0.007044 77.003 0.999973 -16.08 0.002168 86.466
           0.999973 -16.08 0.007044 70.878 0.002166 73.595
           0.002168 86.466 0.002166 73.595 0.999995 -4.257
7.10000000 0.007063 76.966 0.999973 -16.13 0.002174 86.456
           0.999973 -16.13 0.007064 70.824 0.002172 73.548
           0.002174 86.456 0.002172 73.548 0.999995 -4.269
7.12000000 0.007083 76.929 0.999973 -16.17 0.002180 86.446
           0.999973 -16.17 0.007083 70.770 0.002178 73.502
           0.002180 86.446 0.002178 73.502 0.999995 -4.281
7.14000000 0.007102 76.893 0.999973 -16.22 0.002187 86.436
           0.999973 -16.22 0.007102 70.716 0.002184 73.456
           0.002187 86.436 0.002184 73.456 0.999995 -4.293
7.16000000 0.007121 76.856 0.999972 -16.26 0.002193 86.426
           0.999972 -16.26 0.007122 70.662 0.002190 73.409
           0.002193 86.426 0.002190 73.409 0.999995 -4.305
7.18000000 0.007140 76.820 0.999972 -16.31 0.002199 86.415
           0.999972 -16.31 0.007141 70.608 0.002196 73.363
           0.002199 86.415 0.002196 73.363 0.999995 -4.317
7.20000000 0.007160 76.783 0.999972 -16.35 0.002205 86.405
           0.999972 -16.35 0.007160 70.554 0.002202 73.317
           0.002205 86.405 0.002202 73.317 0.999995 -4.329
7.22000000 0.007179 76.746 0.999972 -16.40 0.002211 86.395
           0.999972 -16.40 0.007180 70.500 0.002208 73.270
           0.002211 86.395 0.002208 73.270 0.999995 -4.341
7.24000000 0.007198 76.710 0.999972 -16.44 0.002217 86.385
           0.999972 -16.44 0.007199 70.445 0.002215 73.224
           0.002217 86.385 0.002215 73.224 0.999995 -4.353