! Sonnet Data File
! From: em Version : 15.52
! From Project: CPW_gap_coupler_3port_1um_FL_TS_6um_finer
! Data is De-embedded 
! Data File Written: 08/14/2018 18:07:51
!< HDATE 08/14/2018 17:46:56
!< MDATE 08/14/2018 17:46:56
!< PARAMS
!< gap = 2.0
!< cpwS = 5.0
!< cpwS1 = 5.0
!< feedW = 12.0
!< feedS1 = 5.0
!< cond_length = 144.0
!< inner_length = 126.0
!< hangerW = 12.0000175
!< open_gap = 22.0
!< coupler_length = 150.0
!< END PARAMS
# GHZ S MA R 50.00000
4.00000000 0.005014 83.535 0.999976 -9.127 0.004833 84.986
           0.999976 -9.127 0.005015 78.478 0.004832 81.273
           0.004833 84.986 0.004832 81.273 0.999977 -4.902
!< P1 F=4.0 Eeff=(8.78704973 0.0) Z0=(48.6608892 0.0) R=0.0 C=0.00428958 
!< P2 F=4.0 Eeff=(8.7855435 0.0) Z0=(48.6548225 0.0) R=0.0 C=0.00428951 
!< P3 F=4.0 Eeff=(8.02561087 0.0) Z0=(53.0169399 0.0) R=0.0 C=0.00476237 
4.02000000 0.005039 83.503 0.999975 -9.173 0.004857 84.961
           0.999975 -9.173 0.005040 78.420 0.004857 81.229
           0.004857 84.961 0.004857 81.229 0.999976 -4.926
4.04000000 0.005064 83.471 0.999975 -9.218 0.004881 84.936
           0.999975 -9.218 0.005064 78.362 0.004881 81.185
           0.004881 84.936 0.004881 81.185 0.999976 -4.951
4.06000000 0.005089 83.438 0.999975 -9.264 0.004905 84.911
           0.999975 -9.264 0.005089 78.304 0.004905 81.142
           0.004905 84.911 0.004905 81.142 0.999976 -4.975
4.08000000 0.005114 83.406 0.999975 -9.309 0.004930 84.886
           0.999975 -9.309 0.005114 78.247 0.004929 81.098
           0.004930 84.886 0.004929 81.098 0.999976 -5.000
4.10000000 0.005139 83.374 0.999974 -9.355 0.004954 84.861
           0.999974 -9.355 0.005139 78.189 0.004953 81.054
           0.004954 84.861 0.004953 81.054 0.999975 -5.024
4.12000000 0.005164 83.341 0.999974 -9.401 0.004978 84.835
           0.999974 -9.401 0.005164 78.131 0.004977 81.011
           0.004978 84.835 0.004977 81.011 0.999975 -5.049
4.14000000 0.005188 83.309 0.999974 -9.446 0.005002 84.810
           0.999974 -9.446 0.005189 78.074 0.005002 80.967
           0.005002 84.810 0.005002 80.967 0.999975 -5.073
4.16000000 0.005213 83.277 0.999974 -9.492 0.005026 84.785
           0.999974 -9.492 0.005214 78.016 0.005026 80.924
           0.005026 84.785 0.005026 80.924 0.999975 -5.098
4.18000000 0.005238 83.244 0.999973 -9.538 0.005050 84.760
           0.999973 -9.538 0.005239 77.958 0.005050 80.880
           0.005050 84.760 0.005050 80.880 0.999974 -5.122
4.20000000 0.005263 83.212 0.999973 -9.583 0.005075 84.735
           0.999973 -9.583 0.005264 77.900 0.005074 80.836
           0.005075 84.735 0.005074 80.836 0.999974 -5.147
4.22000000 0.005288 83.180 0.999973 -9.629 0.005099 84.710
           0.999973 -9.629 0.005288 77.843 0.005098 80.793
           0.005099 84.710 0.005098 80.793 0.999974 -5.171
4.24000000 0.005313 83.147 0.999973 -9.675 0.005123 84.685
           0.999973 -9.675 0.005313 77.785 0.005122 80.749
           0.005123 84.685 0.005122 80.749 0.999974 -5.196
4.26000000 0.005338 83.115 0.999972 -9.720 0.005147 84.660
           0.999972 -9.720 0.005338 77.727 0.005147 80.705
           0.005147 84.660 0.005147 80.705 0.999974 -5.220
4.28000000 0.005362 83.083 0.999972 -9.766 0.005171 84.635
           0.999972 -9.766 0.005363 77.670 0.005171 80.662
           0.005171 84.635 0.005171 80.662 0.999973 -5.245
4.30000000 0.005387 83.051 0.999972 -9.811 0.005196 84.610
           0.999972 -9.811 0.005388 77.612 0.005195 80.618
           0.005196 84.610 0.005195 80.618 0.999973 -5.269
4.32000000 0.005412 83.018 0.999972 -9.857 0.005220 84.585
           0.999972 -9.857 0.005413 77.554 0.005219 80.574
           0.005220 84.585 0.005219 80.574 0.999973 -5.294
4.34000000 0.005437 82.986 0.999971 -9.903 0.005244 84.560
           0.999971 -9.903 0.005437 77.497 0.005243 80.531
           0.005244 84.560 0.005243 80.531 0.999973 -5.319
4.36000000 0.005462 82.954 0.999971 -9.948 0.005268 84.534
           0.999971 -9.948 0.005462 77.439 0.005267 80.487
           0.005268 84.534 0.005267 80.487 0.999972 -5.343
4.38000000 0.005487 82.922 0.999971 -9.994 0.005292 84.509
           0.999971 -9.994 0.005487 77.381 0.005292 80.443
           0.005292 84.509 0.005292 80.443 0.999972 -5.368
4.40000000 0.005511 82.889 0.999971 -10.04 0.005316 84.484
           0.999971 -10.04 0.005512 77.324 0.005316 80.400
           0.005316 84.484 0.005316 80.400 0.999972 -5.392
4.42000000 0.005536 82.857 0.999970 -10.09 0.005341 84.459
           0.999970 -10.09 0.005537 77.266 0.005340 80.356
           0.005341 84.459 0.005340 80.356 0.999971 -5.417
4.44000000 0.005561 82.825 0.999970 -10.13 0.005365 84.434
           0.999970 -10.13 0.005562 77.208 0.005364 80.313
           0.005365 84.434 0.005364 80.313 0.999971 -5.441
4.46000000 0.005586 82.793 0.999970 -10.18 0.005389 84.409
           0.999970 -10.18 0.005586 77.151 0.005388 80.269
           0.005389 84.409 0.005388 80.269 0.999971 -5.466
4.48000000 0.005611 82.760 0.999970 -10.22 0.005413 84.384
           0.999970 -10.22 0.005611 77.093 0.005412 80.225
           0.005413 84.384 0.005412 80.225 0.999971 -5.490
4.50000000 0.005635 82.728 0.999969 -10.27 0.005437 84.359
           0.999969 -10.27 0.005636 77.035 0.005437 80.182
           0.005437 84.359 0.005437 80.182 0.999970 -5.515
4.52000000 0.005660 82.696 0.999969 -10.31 0.005461 84.334
           0.999969 -10.31 0.005661 76.978 0.005461 80.138
           0.005461 84.334 0.005461 80.138 0.999970 -5.539
4.54000000 0.005685 82.664 0.999969 -10.36 0.005486 84.309
           0.999969 -10.36 0.005686 76.920 0.005485 80.094
           0.005486 84.309 0.005485 80.094 0.999970 -5.564
4.56000000 0.005710 82.631 0.999968 -10.40 0.005510 84.284
           0.999968 -10.40 0.005710 76.862 0.005509 80.051
           0.005510 84.284 0.005509 80.051 0.999970 -5.588
4.58000000 0.005735 82.599 0.999968 -10.45 0.005534 84.258
           0.999968 -10.45 0.005735 76.805 0.005533 80.007
           0.005534 84.258 0.005533 80.007 0.999969 -5.613
4.60000000 0.005759 82.567 0.999968 -10.50 0.005558 84.233
           0.999968 -10.50 0.005760 76.747 0.005557 79.963
           0.005558 84.233 0.005557 79.963 0.999969 -5.637
4.62000000 0.005784 82.535 0.999968 -10.54 0.005582 84.208
           0.999968 -10.54 0.005785 76.689 0.005582 79.920
           0.005582 84.208 0.005582 79.920 0.999969 -5.662
4.64000000 0.005809 82.503 0.999967 -10.59 0.005607 84.183
           0.999967 -10.59 0.005810 76.632 0.005606 79.876
           0.005607 84.183 0.005606 79.876 0.999969 -5.686
4.66000000 0.005834 82.470 0.999967 -10.63 0.005631 84.158
           0.999967 -10.63 0.005834 76.574 0.005630 79.833
           0.005631 84.158 0.005630 79.833 0.999968 -5.711
4.68000000 0.005858 82.438 0.999967 -10.68 0.005655 84.133
           0.999967 -10.68 0.005859 76.516 0.005654 79.789
           0.005655 84.133 0.005654 79.789 0.999968 -5.735
4.70000000 0.005883 82.406 0.999967 -10.72 0.005679 84.108
           0.999967 -10.72 0.005884 76.459 0.005678 79.745
           0.005679 84.108 0.005678 79.745 0.999968 -5.760
4.72000000 0.005908 82.374 0.999966 -10.77 0.005703 84.083
           0.999966 -10.77 0.005909 76.401 0.005702 79.702
           0.005703 84.083 0.005702 79.702 0.999967 -5.784
4.74000000 0.005933 82.342 0.999966 -10.82 0.005727 84.058
           0.999966 -10.82 0.005934 76.344 0.005727 79.658
           0.005727 84.058 0.005727 79.658 0.999967 -5.809
4.76000000 0.005957 82.310 0.999966 -10.86 0.005752 84.033
           0.999966 -10.86 0.005958 76.286 0.005751 79.614
           0.005752 84.033 0.005751 79.614 0.999967 -5.833
4.78000000 0.005982 82.277 0.999965 -10.91 0.005776 84.007
           0.999965 -10.91 0.005983 76.228 0.005775 79.571
           0.005776 84.007 0.005775 79.571 0.999967 -5.858
4.80000000 0.006007 82.245 0.999965 -10.95 0.005800 83.982
           0.999965 -10.95 0.006008 76.171 0.005799 79.527
           0.005800 83.982 0.005799 79.527 0.999966 -5.882
4.82000000 0.006032 82.213 0.999965 -11.00 0.005824 83.957
           0.999965 -11.00 0.006033 76.113 0.005823 79.483
           0.005824 83.957 0.005823 79.483 0.999966 -5.907
4.84000000 0.006056 82.181 0.999965 -11.04 0.005848 83.932
           0.999965 -11.04 0.006057 76.055 0.005847 79.440
           0.005848 83.932 0.005847 79.440 0.999966 -5.931
4.86000000 0.006081 82.149 0.999964 -11.09 0.005873 83.907
           0.999964 -11.09 0.006082 75.998 0.005872 79.396
           0.005873 83.907 0.005872 79.396 0.999966 -5.956
4.88000000 0.006106 82.116 0.999964 -11.13 0.005897 83.882
           0.999964 -11.13 0.006107 75.940 0.005896 79.353
           0.005897 83.882 0.005896 79.353 0.999965 -5.980
!< P1 F=4.88 Eeff=(8.78705999 0.0) Z0=(48.6609117 0.0) R=0.0 C=0.00428958 
!< P2 F=4.88 Eeff=(8.78555374 0.0) Z0=(48.654845 0.0) R=0.0 C=0.00428951 
!< P3 F=4.88 Eeff=(8.02562538 0.0) Z0=(53.0169392 0.0) R=0.0 C=0.00476237 
4.90000000 0.006131 82.084 0.999964 -11.18 0.005921 83.857
           0.999964 -11.18 0.006131 75.882 0.005920 79.309
           0.005921 83.857 0.005920 79.309 0.999965 -6.005
4.92000000 0.006155 82.052 0.999963 -11.23 0.005945 83.832
           0.999963 -11.23 0.006156 75.825 0.005944 79.265
           0.005945 83.832 0.005944 79.265 0.999965 -6.029
4.94000000 0.006180 82.020 0.999963 -11.27 0.005969 83.807
           0.999963 -11.27 0.006181 75.767 0.005968 79.222
           0.005969 83.807 0.005968 79.222 0.999964 -6.054
4.96000000 0.006205 81.988 0.999963 -11.32 0.005993 83.782
           0.999963 -11.32 0.006206 75.709 0.005992 79.178
           0.005993 83.782 0.005992 79.178 0.999964 -6.079
4.98000000 0.006229 81.956 0.999963 -11.36 0.006018 83.756
           0.999963 -11.36 0.006230 75.652 0.006017 79.134
           0.006018 83.756 0.006017 79.134 0.999964 -6.103
5.00000000 0.006254 81.923 0.999962 -11.41 0.006042 83.731
           0.999962 -11.41 0.006255 75.594 0.006041 79.091
           0.006042 83.731 0.006041 79.091 0.999964 -6.128
5.02000000 0.006279 81.891 0.999962 -11.45 0.006066 83.706
           0.999962 -11.45 0.006280 75.536 0.006065 79.047
           0.006066 83.706 0.006065 79.047 0.999963 -6.152
5.04000000 0.006304 81.859 0.999962 -11.50 0.006090 83.681
           0.999962 -11.50 0.006305 75.479 0.006089 79.003
           0.006090 83.681 0.006089 79.003 0.999963 -6.177
5.06000000 0.006328 81.827 0.999961 -11.55 0.006114 83.656
           0.999961 -11.55 0.006329 75.421 0.006113 78.960
           0.006114 83.656 0.006113 78.960 0.999963 -6.201
5.08000000 0.006353 81.795 0.999961 -11.59 0.006139 83.631
           0.999961 -11.59 0.006354 75.363 0.006137 78.916
           0.006139 83.631 0.006137 78.916 0.999962 -6.226
5.10000000 0.006378 81.763 0.999961 -11.64 0.006163 83.606
           0.999961 -11.64 0.006379 75.306 0.006162 78.873
           0.006163 83.606 0.006162 78.873 0.999962 -6.250
5.12000000 0.006402 81.730 0.999960 -11.68 0.006187 83.581
           0.999960 -11.68 0.006403 75.248 0.006186 78.829
           0.006187 83.581 0.006186 78.829 0.999962 -6.275
5.14000000 0.006427 81.698 0.999960 -11.73 0.006211 83.556
           0.999960 -11.73 0.006428 75.190 0.006210 78.785
           0.006211 83.556 0.006210 78.785 0.999961 -6.299
5.16000000 0.006452 81.666 0.999960 -11.77 0.006235 83.531
           0.999960 -11.77 0.006453 75.133 0.006234 78.742
           0.006235 83.531 0.006234 78.742 0.999961 -6.324
5.18000000 0.006476 81.634 0.999960 -11.82 0.006259 83.505
           0.999960 -11.82 0.006477 75.075 0.006258 78.698
           0.006259 83.505 0.006258 78.698 0.999961 -6.348
5.20000000 0.006501 81.602 0.999959 -11.86 0.006284 83.480
           0.999959 -11.86 0.006502 75.017 0.006282 78.654
           0.006284 83.480 0.006282 78.654 0.999961 -6.373
5.22000000 0.006526 81.570 0.999959 -11.91 0.006308 83.455
           0.999959 -11.91 0.006527 74.960 0.006307 78.611
           0.006308 83.455 0.006307 78.611 0.999960 -6.397
5.24000000 0.006550 81.538 0.999959 -11.96 0.006332 83.430
           0.999959 -11.96 0.006551 74.902 0.006331 78.567
           0.006332 83.430 0.006331 78.567 0.999960 -6.422
5.26000000 0.006575 81.505 0.999958 -12.00 0.006356 83.405
           0.999958 -12.00 0.006576 74.844 0.006355 78.523
           0.006356 83.405 0.006355 78.523 0.999960 -6.446
5.28000000 0.006600 81.473 0.999958 -12.05 0.006380 83.380
           0.999958 -12.05 0.006601 74.787 0.006379 78.480
           0.006380 83.380 0.006379 78.480 0.999959 -6.471
5.30000000 0.006624 81.441 0.999958 -12.09 0.006405 83.355
           0.999958 -12.09 0.006625 74.729 0.006403 78.436
           0.006405 83.355 0.006403 78.436 0.999959 -6.495
5.32000000 0.006649 81.409 0.999957 -12.14 0.006429 83.330
           0.999957 -12.14 0.006650 74.671 0.006428 78.393
           0.006429 83.330 0.006428 78.393 0.999959 -6.520
5.34000000 0.006674 81.377 0.999957 -12.18 0.006453 83.305
           0.999957 -12.18 0.006675 74.614 0.006452 78.349
           0.006453 83.305 0.006452 78.349 0.999958 -6.544
5.36000000 0.006698 81.345 0.999957 -12.23 0.006477 83.279
           0.999957 -12.23 0.006699 74.556 0.006476 78.305
           0.006477 83.279 0.006476 78.305 0.999958 -6.569
5.38000000 0.006723 81.312 0.999956 -12.28 0.006501 83.254
           0.999956 -12.28 0.006724 74.498 0.006500 78.262
           0.006501 83.254 0.006500 78.262 0.999958 -6.593
5.40000000 0.006747 81.280 0.999956 -12.32 0.006525 83.229
           0.999956 -12.32 0.006749 74.441 0.006524 78.218
           0.006525 83.229 0.006524 78.218 0.999957 -6.618
5.42000000 0.006772 81.248 0.999956 -12.37 0.006550 83.204
           0.999956 -12.37 0.006773 74.383 0.006548 78.174
           0.006550 83.204 0.006548 78.174 0.999957 -6.642
5.44000000 0.006797 81.216 0.999955 -12.41 0.006574 83.179
           0.999955 -12.41 0.006798 74.325 0.006573 78.131
           0.006574 83.179 0.006573 78.131 0.999957 -6.667
5.46000000 0.006821 81.184 0.999955 -12.46 0.006598 83.154
           0.999955 -12.46 0.006823 74.267 0.006597 78.087
           0.006598 83.154 0.006597 78.087 0.999956 -6.691
5.48000000 0.006846 81.152 0.999955 -12.50 0.006622 83.129
           0.999955 -12.50 0.006847 74.210 0.006621 78.043
           0.006622 83.129 0.006621 78.043 0.999956 -6.716
5.50000000 0.006871 81.119 0.999954 -12.55 0.006646 83.104
           0.999954 -12.55 0.006872 74.152 0.006645 78.000
           0.006646 83.104 0.006645 78.000 0.999956 -6.741
5.52000000 0.006895 81.087 0.999954 -12.60 0.006671 83.079
           0.999954 -12.60 0.006897 74.094 0.006669 77.956
           0.006671 83.079 0.006669 77.956 0.999956 -6.765
5.54000000 0.006920 81.055 0.999954 -12.64 0.006695 83.054
           0.999954 -12.64 0.006921 74.037 0.006693 77.913
           0.006695 83.054 0.006693 77.913 0.999955 -6.790
5.56000000 0.006944 81.023 0.999953 -12.69 0.006719 83.028
           0.999953 -12.69 0.006946 73.979 0.006718 77.869
           0.006719 83.028 0.006718 77.869 0.999955 -6.814
5.58000000 0.006969 80.991 0.999953 -12.73 0.006743 83.003
           0.999953 -12.73 0.006970 73.921 0.006742 77.825
           0.006743 83.003 0.006742 77.825 0.999955 -6.839
5.60000000 0.006994 80.958 0.999953 -12.78 0.006767 82.978
           0.999953 -12.78 0.006995 73.863 0.006766 77.782
           0.006767 82.978 0.006766 77.782 0.999954 -6.863
5.62000000 0.007018 80.926 0.999952 -12.82 0.006791 82.953
           0.999952 -12.82 0.007020 73.806 0.006790 77.738
           0.006791 82.953 0.006790 77.738 0.999954 -6.888
5.64000000 0.007043 80.894 0.999952 -12.87 0.006816 82.928
           0.999952 -12.87 0.007044 73.748 0.006814 77.694
           0.006816 82.928 0.006814 77.694 0.999954 -6.912
5.66000000 0.007067 80.862 0.999952 -12.91 0.006840 82.903
           0.999952 -12.91 0.007069 73.690 0.006838 77.651
           0.006840 82.903 0.006838 77.651 0.999953 -6.937
5.68000000 0.007092 80.830 0.999951 -12.96 0.006864 82.878
           0.999951 -12.96 0.007093 73.632 0.006863 77.607
           0.006864 82.878 0.006863 77.607 0.999953 -6.961
5.70000000 0.007117 80.797 0.999951 -13.01 0.006888 82.853
           0.999951 -13.01 0.007118 73.575 0.006887 77.563
           0.006888 82.853 0.006887 77.563 0.999953 -6.986
5.72000000 0.007141 80.765 0.999951 -13.05 0.006912 82.828
           0.999951 -13.05 0.007143 73.517 0.006911 77.520
           0.006912 82.828 0.006911 77.520 0.999952 -7.010
5.74000000 0.007166 80.733 0.999950 -13.10 0.006937 82.803
           0.999950 -13.10 0.007167 73.459 0.006935 77.476
           0.006937 82.803 0.006935 77.476 0.999952 -7.035
5.76000000 0.007190 80.701 0.999950 -13.14 0.006961 82.777
           0.999950 -13.14 0.007192 73.401 0.006959 77.432
           0.006961 82.777 0.006959 77.432 0.999952 -7.059
5.78000000 0.007215 80.669 0.999950 -13.19 0.006985 82.752
           0.999950 -13.19 0.007216 73.344 0.006983 77.389
           0.006985 82.752 0.006983 77.389 0.999951 -7.084
5.80000000 0.007239 80.636 0.999949 -13.23 0.007009 82.727
           0.999949 -13.23 0.007241 73.286 0.007008 77.345
           0.007009 82.727 0.007008 77.345 0.999951 -7.108
5.82000000 0.007264 80.604 0.999949 -13.28 0.007033 82.702
           0.999949 -13.28 0.007266 73.228 0.007032 77.302
           0.007033 82.702 0.007032 77.302 0.999951 -7.133
5.84000000 0.007289 80.572 0.999949 -13.33 0.007058 82.677
           0.999949 -13.33 0.007290 73.170 0.007056 77.258
           0.007058 82.677 0.007056 77.258 0.999950 -7.157
5.86000000 0.007313 80.540 0.999948 -13.37 0.007082 82.652
           0.999948 -13.37 0.007315 73.112 0.007080 77.214
           0.007082 82.652 0.007080 77.214 0.999950 -7.182
5.88000000 0.007338 80.507 0.999948 -13.42 0.007106 82.627
           0.999948 -13.42 0.007339 73.055 0.007104 77.171
           0.007106 82.627 0.007104 77.171 0.999950 -7.206
5.90000000 0.007362 80.475 0.999948 -13.46 0.007130 82.602
           0.999948 -13.46 0.007364 72.997 0.007129 77.127
           0.007130 82.602 0.007129 77.127 0.999949 -7.231
5.92000000 0.007387 80.443 0.999947 -13.51 0.007154 82.577
           0.999947 -13.51 0.007388 72.939 0.007153 77.083
           0.007154 82.577 0.007153 77.083 0.999949 -7.255
5.94000000 0.007411 80.411 0.999947 -13.55 0.007178 82.551
           0.999947 -13.55 0.007413 72.881 0.007177 77.040
           0.007178 82.551 0.007177 77.040 0.999948 -7.280
5.96000000 0.007436 80.378 0.999946 -13.60 0.007203 82.526
           0.999946 -13.60 0.007438 72.823 0.007201 76.996
           0.007203 82.526 0.007201 76.996 0.999948 -7.304
5.98000000 0.007461 80.346 0.999946 -13.64 0.007227 82.501
           0.999946 -13.64 0.007462 72.766 0.007225 76.952
           0.007227 82.501 0.007225 76.952 0.999948 -7.329
6.00000000 0.007485 80.314 0.999946 -13.69 0.007251 82.476
           0.999946 -13.69 0.007487 72.708 0.007249 76.909
           0.007251 82.476 0.007249 76.909 0.999947 -7.354
6.02000000 0.007510 80.282 0.999945 -13.74 0.007275 82.451
           0.999945 -13.74 0.007511 72.650 0.007274 76.865
           0.007275 82.451 0.007274 76.865 0.999947 -7.378
!< P1 F=6.02 Eeff=(8.78707632 0.0) Z0=(48.6609475 0.0) R=0.0 C=0.00428958 
!< P2 F=6.02 Eeff=(8.78557006 0.0) Z0=(48.6548808 0.0) R=0.0 C=0.00428951 
!< P3 F=6.02 Eeff=(8.02564838 0.0) Z0=(53.0169379 0.0) R=0.0 C=0.00476238 
6.04000000 0.007534 80.250 0.999945 -13.78 0.007299 82.426
           0.999945 -13.78 0.007536 72.592 0.007298 76.821
           0.007299 82.426 0.007298 76.821 0.999947 -7.403
6.06000000 0.007559 80.218 0.999945 -13.83 0.007324 82.401
           0.999945 -13.83 0.007560 72.535 0.007322 76.778
           0.007324 82.401 0.007322 76.778 0.999946 -7.427
6.08000000 0.007583 80.186 0.999944 -13.87 0.007348 82.376
           0.999944 -13.87 0.007585 72.477 0.007346 76.734
           0.007348 82.376 0.007346 76.734 0.999946 -7.452
6.10000000 0.007607 80.154 0.999944 -13.92 0.007372 82.351
           0.999944 -13.92 0.007609 72.419 0.007370 76.691
           0.007372 82.351 0.007370 76.691 0.999946 -7.476
6.12000000 0.007632 80.122 0.999944 -13.96 0.007396 82.325
           0.999944 -13.96 0.007634 72.362 0.007394 76.647
           0.007396 82.325 0.007394 76.647 0.999945 -7.501
6.14000000 0.007656 80.090 0.999943 -14.01 0.007420 82.300
           0.999943 -14.01 0.007658 72.304 0.007419 76.603
           0.007420 82.300 0.007419 76.603 0.999945 -7.525
6.16000000 0.007681 80.058 0.999943 -14.06 0.007445 82.275
           0.999943 -14.06 0.007683 72.246 0.007443 76.560
           0.007445 82.275 0.007443 76.560 0.999945 -7.550
6.18000000 0.007705 80.026 0.999943 -14.10 0.007469 82.250
           0.999943 -14.10 0.007707 72.188 0.007467 76.516
           0.007469 82.250 0.007467 76.516 0.999944 -7.574
6.20000000 0.007730 79.994 0.999942 -14.15 0.007493 82.225
           0.999942 -14.15 0.007732 72.131 0.007491 76.472
           0.007493 82.225 0.007491 76.472 0.999944 -7.599
6.22000000 0.007754 79.962 0.999942 -14.19 0.007517 82.200
           0.999942 -14.19 0.007756 72.073 0.007515 76.429
           0.007517 82.200 0.007515 76.429 0.999944 -7.623
6.24000000 0.007779 79.930 0.999941 -14.24 0.007541 82.175
           0.999941 -14.24 0.007781 72.015 0.007539 76.385
           0.007541 82.175 0.007539 76.385 0.999943 -7.648
6.26000000 0.007803 79.898 0.999941 -14.28 0.007566 82.150
           0.999941 -14.28 0.007805 71.958 0.007564 76.342
           0.007566 82.150 0.007564 76.342 0.999943 -7.672
6.28000000 0.007828 79.866 0.999941 -14.33 0.007590 82.125
           0.999941 -14.33 0.007829 71.900 0.007588 76.298
           0.007590 82.125 0.007588 76.298 0.999942 -7.697
6.30000000 0.007852 79.834 0.999940 -14.37 0.007614 82.099
           0.999940 -14.37 0.007854 71.842 0.007612 76.254
           0.007614 82.099 0.007612 76.254 0.999942 -7.721
6.32000000 0.007876 79.802 0.999940 -14.42 0.007638 82.074
           0.999940 -14.42 0.007878 71.785 0.007636 76.211
           0.007638 82.074 0.007636 76.211 0.999942 -7.746
6.34000000 0.007901 79.770 0.999940 -14.47 0.007662 82.049
           0.999940 -14.47 0.007903 71.727 0.007660 76.167
           0.007662 82.049 0.007660 76.167 0.999941 -7.770
6.36000000 0.007925 79.738 0.999939 -14.51 0.007687 82.024
           0.999939 -14.51 0.007927 71.669 0.007684 76.123
           0.007687 82.024 0.007684 76.123 0.999941 -7.795
6.38000000 0.007950 79.706 0.999939 -14.56 0.007711 81.999
           0.999939 -14.56 0.007952 71.611 0.007709 76.080
           0.007711 81.999 0.007709 76.080 0.999941 -7.819
6.40000000 0.007974 79.674 0.999939 -14.60 0.007735 81.974
           0.999939 -14.60 0.007976 71.554 0.007733 76.036
           0.007735 81.974 0.007733 76.036 0.999940 -7.844
6.42000000 0.007998 79.642 0.999938 -14.65 0.007759 81.949
           0.999938 -14.65 0.008000 71.496 0.007757 75.992
           0.007759 81.949 0.007757 75.992 0.999940 -7.869
6.44000000 0.008023 79.610 0.999938 -14.69 0.007783 81.924
           0.999938 -14.69 0.008025 71.438 0.007781 75.949
           0.007783 81.924 0.007781 75.949 0.999939 -7.893
6.46000000 0.008047 79.578 0.999937 -14.74 0.007808 81.898
           0.999937 -14.74 0.008049 71.381 0.007805 75.905
           0.007808 81.898 0.007805 75.905 0.999939 -7.918
6.48000000 0.008072 79.546 0.999937 -14.79 0.007832 81.873
           0.999937 -14.79 0.008074 71.323 0.007830 75.862
           0.007832 81.873 0.007830 75.862 0.999939 -7.942
6.50000000 0.008096 79.514 0.999937 -14.83 0.007856 81.848
           0.999937 -14.83 0.008098 71.265 0.007854 75.818
           0.007856 81.848 0.007854 75.818 0.999938 -7.967
6.52000000 0.008120 79.482 0.999936 -14.88 0.007880 81.823
           0.999936 -14.88 0.008122 71.207 0.007878 75.774
           0.007880 81.823 0.007878 75.774 0.999938 -7.991
6.54000000 0.008145 79.450 0.999936 -14.92 0.007904 81.798
           0.999936 -14.92 0.008147 71.150 0.007902 75.731
           0.007904 81.798 0.007902 75.731 0.999938 -8.016
6.56000000 0.008169 79.418 0.999936 -14.97 0.007928 81.773
           0.999936 -14.97 0.008171 71.092 0.007926 75.687
           0.007928 81.773 0.007926 75.687 0.999937 -8.040
6.58000000 0.008193 79.386 0.999935 -15.01 0.007953 81.748
           0.999935 -15.01 0.008196 71.034 0.007950 75.643
           0.007953 81.748 0.007950 75.643 0.999937 -8.065
6.60000000 0.008218 79.354 0.999935 -15.06 0.007977 81.723
           0.999935 -15.06 0.008220 70.977 0.007975 75.600
           0.007977 81.723 0.007975 75.600 0.999936 -8.089
6.62000000 0.008242 79.322 0.999934 -15.10 0.008001 81.697
           0.999934 -15.10 0.008244 70.919 0.007999 75.556
           0.008001 81.697 0.007999 75.556 0.999936 -8.114
6.64000000 0.008267 79.290 0.999934 -15.15 0.008025 81.672
           0.999934 -15.15 0.008269 70.861 0.008023 75.513
           0.008025 81.672 0.008023 75.513 0.999936 -8.138
6.66000000 0.008291 79.258 0.999934 -15.20 0.008049 81.647
           0.999934 -15.20 0.008293 70.803 0.008047 75.469
           0.008049 81.647 0.008047 75.469 0.999935 -8.163
6.68000000 0.008315 79.226 0.999933 -15.24 0.008074 81.622
           0.999933 -15.24 0.008317 70.746 0.008071 75.425
           0.008074 81.622 0.008071 75.425 0.999935 -8.187
6.70000000 0.008340 79.194 0.999933 -15.29 0.008098 81.597
           0.999933 -15.29 0.008342 70.688 0.008095 75.382
           0.008098 81.597 0.008095 75.382 0.999934 -8.212
6.72000000 0.008364 79.162 0.999933 -15.33 0.008122 81.572
           0.999933 -15.33 0.008366 70.630 0.008120 75.338
           0.008122 81.572 0.008120 75.338 0.999934 -8.236
6.74000000 0.008388 79.130 0.999932 -15.38 0.008146 81.547
           0.999932 -15.38 0.008391 70.572 0.008144 75.294
           0.008146 81.547 0.008144 75.294 0.999934 -8.261
6.76000000 0.008413 79.098 0.999932 -15.42 0.008170 81.522
           0.999932 -15.42 0.008415 70.515 0.008168 75.251
           0.008170 81.522 0.008168 75.251 0.999933 -8.285
6.78000000 0.008437 79.066 0.999931 -15.47 0.008195 81.496
           0.999931 -15.47 0.008439 70.457 0.008192 75.207
           0.008195 81.496 0.008192 75.207 0.999933 -8.310
6.80000000 0.008461 79.034 0.999931 -15.52 0.008219 81.471
           0.999931 -15.52 0.008464 70.399 0.008216 75.163
           0.008219 81.471 0.008216 75.163 0.999932 -8.335
6.82000000 0.008485 79.002 0.999931 -15.56 0.008243 81.446
           0.999931 -15.56 0.008488 70.341 0.008241 75.120
           0.008243 81.446 0.008241 75.120 0.999932 -8.359
6.84000000 0.008510 78.970 0.999930 -15.61 0.008267 81.421
           0.999930 -15.61 0.008512 70.284 0.008265 75.076
           0.008267 81.421 0.008265 75.076 0.999932 -8.384
6.86000000 0.008534 78.938 0.999930 -15.65 0.008291 81.396
           0.999930 -15.65 0.008537 70.226 0.008289 75.033
           0.008291 81.396 0.008289 75.033 0.999931 -8.408
6.88000000 0.008558 78.906 0.999929 -15.70 0.008316 81.371
           0.999929 -15.70 0.008561 70.168 0.008313 74.989
           0.008316 81.371 0.008313 74.989 0.999931 -8.433
6.90000000 0.008583 78.874 0.999929 -15.74 0.008340 81.346
           0.999929 -15.74 0.008585 70.110 0.008337 74.945
           0.008340 81.346 0.008337 74.945 0.999930 -8.457
6.92000000 0.008607 78.842 0.999929 -15.79 0.008364 81.320
           0.999929 -15.79 0.008609 70.052 0.008361 74.902
           0.008364 81.320 0.008361 74.902 0.999930 -8.482
6.94000000 0.008631 78.810 0.999928 -15.83 0.008388 81.295
           0.999928 -15.83 0.008634 69.995 0.008386 74.858
           0.008388 81.295 0.008386 74.858 0.999930 -8.506
6.96000000 0.008656 78.778 0.999928 -15.88 0.008412 81.270
           0.999928 -15.88 0.008658 69.937 0.008410 74.814
           0.008412 81.270 0.008410 74.814 0.999929 -8.531
6.98000000 0.008680 78.746 0.999927 -15.93 0.008437 81.245
           0.999927 -15.93 0.008682 69.879 0.008434 74.771
           0.008437 81.245 0.008434 74.771 0.999929 -8.555
7.00000000 0.008704 78.714 0.999927 -15.97 0.008461 81.220
           0.999927 -15.97 0.008707 69.821 0.008458 74.727
           0.008461 81.220 0.008458 74.727 0.999928 -8.580
7.02000000 0.008728 78.682 0.999927 -16.02 0.008485 81.195
           0.999927 -16.02 0.008731 69.764 0.008482 74.683
           0.008485 81.195 0.008482 74.683 0.999928 -8.604
7.04000000 0.008753 78.650 0.999926 -16.06 0.008509 81.170
           0.999926 -16.06 0.008755 69.706 0.008506 74.640
           0.008509 81.170 0.008506 74.640 0.999928 -8.629
7.06000000 0.008777 78.618 0.999926 -16.11 0.008533 81.145
           0.999926 -16.11 0.008779 69.648 0.008531 74.596
           0.008533 81.145 0.008531 74.596 0.999927 -8.653
7.08000000 0.008801 78.586 0.999925 -16.15 0.008558 81.119
           0.999925 -16.15 0.008804 69.590 0.008555 74.553
           0.008558 81.119 0.008555 74.553 0.999927 -8.678
7.10000000 0.008825 78.554 0.999925 -16.20 0.008582 81.094
           0.999925 -16.20 0.008828 69.532 0.008579 74.509
           0.008582 81.094 0.008579 74.509 0.999926 -8.702
7.12000000 0.008850 78.522 0.999924 -16.25 0.008606 81.069
           0.999924 -16.25 0.008852 69.474 0.008603 74.465
           0.008606 81.069 0.008603 74.465 0.999926 -8.727
7.14000000 0.008874 78.490 0.999924 -16.29 0.008630 81.044
           0.999924 -16.29 0.008877 69.417 0.008627 74.422
           0.008630 81.044 0.008627 74.422 0.999926 -8.751
7.16000000 0.008898 78.458 0.999924 -16.34 0.008654 81.019
           0.999924 -16.34 0.008901 69.359 0.008652 74.378
           0.008654 81.019 0.008652 74.378 0.999925 -8.776
7.18000000 0.008922 78.426 0.999923 -16.38 0.008679 80.994
           0.999923 -16.38 0.008925 69.301 0.008676 74.334
           0.008679 80.994 0.008676 74.334 0.999925 -8.801
7.20000000 0.008947 78.394 0.999923 -16.43 0.008703 80.969
           0.999923 -16.43 0.008949 69.243 0.008700 74.291
           0.008703 80.969 0.008700 74.291 0.999924 -8.825
7.22000000 0.008971 78.362 0.999922 -16.47 0.008727 80.944
           0.999922 -16.47 0.008974 69.185 0.008724 74.247
           0.008727 80.944 0.008724 74.247 0.999924 -8.850
7.24000000 0.008995 78.330 0.999922 -16.52 0.008751 80.918
           0.999922 -16.52 0.008998 69.128 0.008748 74.203
           0.008751 80.918 0.008748 74.203 0.999923 -8.874