! Sonnet Data File
! From: em Version : 15.52
! From Project: CPW_gap_coupler_3port_1um_FL_TS_6um_finer
! Data is De-embedded 
! Data File Written: 08/14/2018 18:07:51
!< HDATE 08/14/2018 17:46:56
!< MDATE 08/14/2018 17:46:56
!< PARAMS
!< gap = 2.0
!< cpwS = 5.0
!< cpwS1 = 5.0
!< feedW = 12.0
!< feedS1 = 5.0
!< cond_length = 544.0
!< inner_length = 526.0
!< hangerW = 12.0000175
!< open_gap = 22.0
!< coupler_length = 550.0
!< END PARAMS
# GHZ S MA R 50.00000
4.00000000 0.008746 83.899 0.999776 -9.267 0.019256 73.687
           0.999776 -9.267 0.008677 79.967 0.019288 82.523
           0.019256 73.687 0.019288 82.523 0.999629 -15.01
!< P1 F=4.0 Eeff=(8.78704973 0.0) Z0=(48.6608892 0.0) R=0.0 C=0.00428958 
!< P2 F=4.0 Eeff=(8.7855435 0.0) Z0=(48.6548225 0.0) R=0.0 C=0.00428951 
!< P3 F=4.0 Eeff=(8.01875614 0.0) Z0=(52.990452 0.0) R=0.0 C=0.00476187 
4.02000000 0.008790 83.868 0.999774 -9.313 0.019352 73.606
           0.999774 -9.313 0.008720 79.917 0.019384 82.486
           0.019352 73.606 0.019384 82.486 0.999625 -15.09
4.04000000 0.008834 83.837 0.999772 -9.360 0.019448 73.524
           0.999772 -9.360 0.008763 79.867 0.019481 82.448
           0.019448 73.524 0.019481 82.448 0.999621 -15.16
4.06000000 0.008879 83.806 0.999770 -9.406 0.019545 73.443
           0.999770 -9.406 0.008806 79.816 0.019577 82.410
           0.019545 73.443 0.019577 82.410 0.999617 -15.24
4.08000000 0.008923 83.775 0.999767 -9.452 0.019641 73.361
           0.999767 -9.452 0.008849 79.766 0.019674 82.373
           0.019641 73.361 0.019674 82.373 0.999614 -15.31
4.10000000 0.008967 83.743 0.999765 -9.499 0.019737 73.279
           0.999765 -9.499 0.008892 79.716 0.019770 82.335
           0.019737 73.279 0.019770 82.335 0.999610 -15.39
4.12000000 0.009011 83.712 0.999763 -9.545 0.019833 73.198
           0.999763 -9.545 0.008935 79.666 0.019867 82.298
           0.019833 73.198 0.019867 82.298 0.999606 -15.46
4.14000000 0.009055 83.681 0.999760 -9.591 0.019929 73.116
           0.999760 -9.591 0.008978 79.616 0.019963 82.260
           0.019929 73.116 0.019963 82.260 0.999602 -15.54
4.16000000 0.009099 83.650 0.999758 -9.638 0.020025 73.035
           0.999758 -9.638 0.009021 79.565 0.020060 82.222
           0.020025 73.035 0.020060 82.222 0.999598 -15.61
4.18000000 0.009143 83.619 0.999756 -9.684 0.020121 72.953
           0.999756 -9.684 0.009064 79.515 0.020157 82.185
           0.020121 72.953 0.020157 82.185 0.999594 -15.69
4.20000000 0.009187 83.588 0.999753 -9.730 0.020217 72.871
           0.999753 -9.730 0.009107 79.465 0.020253 82.147
           0.020217 72.871 0.020253 82.147 0.999591 -15.76
4.22000000 0.009231 83.557 0.999751 -9.777 0.020313 72.790
           0.999751 -9.777 0.009150 79.415 0.020350 82.110
           0.020313 72.790 0.020350 82.110 0.999587 -15.84
4.24000000 0.009275 83.526 0.999749 -9.823 0.020409 72.708
           0.999749 -9.823 0.009193 79.365 0.020446 82.072
           0.020409 72.708 0.020446 82.072 0.999583 -15.92
4.26000000 0.009319 83.495 0.999746 -9.869 0.020505 72.627
           0.999746 -9.869 0.009236 79.314 0.020543 82.035
           0.020505 72.627 0.020543 82.035 0.999579 -15.99
4.28000000 0.009363 83.464 0.999744 -9.916 0.020601 72.545
           0.999744 -9.916 0.009278 79.264 0.020639 81.997
           0.020601 72.545 0.020639 81.997 0.999575 -16.07
4.30000000 0.009408 83.433 0.999741 -9.962 0.020697 72.463
           0.999741 -9.962 0.009321 79.214 0.020736 81.959
           0.020697 72.463 0.020736 81.959 0.999571 -16.14
4.32000000 0.009452 83.401 0.999739 -10.01 0.020793 72.382
           0.999739 -10.01 0.009364 79.164 0.020832 81.922
           0.020793 72.382 0.020832 81.922 0.999567 -16.22
4.34000000 0.009496 83.370 0.999737 -10.05 0.020889 72.300
           0.999737 -10.05 0.009407 79.114 0.020929 81.884
           0.020889 72.300 0.020929 81.884 0.999563 -16.29
4.36000000 0.009540 83.339 0.999734 -10.10 0.020985 72.218
           0.999734 -10.10 0.009450 79.063 0.021025 81.847
           0.020985 72.218 0.021025 81.847 0.999559 -16.37
4.38000000 0.009584 83.308 0.999732 -10.15 0.021081 72.137
           0.999732 -10.15 0.009493 79.013 0.021122 81.809
           0.021081 72.137 0.021122 81.809 0.999555 -16.44
4.40000000 0.009628 83.277 0.999729 -10.19 0.021177 72.055
           0.999729 -10.19 0.009536 78.963 0.021218 81.771
           0.021177 72.055 0.021218 81.771 0.999551 -16.52
4.42000000 0.009672 83.246 0.999727 -10.24 0.021272 71.973
           0.999727 -10.24 0.009579 78.913 0.021315 81.734
           0.021272 71.973 0.021315 81.734 0.999547 -16.59
4.44000000 0.009717 83.215 0.999724 -10.29 0.021368 71.892
           0.999724 -10.29 0.009622 78.863 0.021411 81.696
           0.021368 71.892 0.021411 81.696 0.999543 -16.67
4.46000000 0.009761 83.184 0.999722 -10.33 0.021464 71.810
           0.999722 -10.33 0.009665 78.813 0.021508 81.659
           0.021464 71.810 0.021508 81.659 0.999538 -16.74
4.48000000 0.009805 83.153 0.999719 -10.38 0.021560 71.728
           0.999719 -10.38 0.009707 78.762 0.021605 81.621
           0.021560 71.728 0.021605 81.621 0.999534 -16.82
4.50000000 0.009849 83.121 0.999717 -10.43 0.021656 71.647
           0.999717 -10.43 0.009750 78.712 0.021701 81.584
           0.021656 71.647 0.021701 81.584 0.999530 -16.89
4.52000000 0.009893 83.090 0.999714 -10.47 0.021752 71.565
           0.999714 -10.47 0.009793 78.662 0.021798 81.546
           0.021752 71.565 0.021798 81.546 0.999526 -16.97
4.54000000 0.009937 83.059 0.999712 -10.52 0.021848 71.484
           0.999712 -10.52 0.009836 78.612 0.021894 81.508
           0.021848 71.484 0.021894 81.508 0.999522 -17.04
4.56000000 0.009982 83.028 0.999709 -10.56 0.021944 71.402
           0.999709 -10.56 0.009879 78.562 0.021991 81.471
           0.021944 71.402 0.021991 81.471 0.999518 -17.12
4.58000000 0.010026 82.997 0.999707 -10.61 0.022040 71.320
           0.999707 -10.61 0.009922 78.512 0.022087 81.433
           0.022040 71.320 0.022087 81.433 0.999513 -17.19
4.60000000 0.010070 82.966 0.999704 -10.66 0.022136 71.239
           0.999704 -10.66 0.009965 78.462 0.022184 81.396
           0.022136 71.239 0.022184 81.396 0.999509 -17.27
4.62000000 0.010114 82.935 0.999701 -10.70 0.022232 71.157
           0.999701 -10.70 0.010007 78.411 0.022280 81.358
           0.022232 71.157 0.022280 81.358 0.999505 -17.34
4.64000000 0.010158 82.903 0.999699 -10.75 0.022328 71.075
           0.999699 -10.75 0.010050 78.361 0.022377 81.320
           0.022328 71.075 0.022377 81.320 0.999500 -17.42
4.66000000 0.010203 82.872 0.999696 -10.80 0.022424 70.993
           0.999696 -10.80 0.010093 78.311 0.022473 81.283
           0.022424 70.993 0.022473 81.283 0.999496 -17.50
4.68000000 0.010247 82.841 0.999694 -10.84 0.022520 70.912
           0.999694 -10.84 0.010136 78.261 0.022570 81.245
           0.022520 70.912 0.022570 81.245 0.999492 -17.57
4.70000000 0.010291 82.810 0.999691 -10.89 0.022616 70.830
           0.999691 -10.89 0.010179 78.211 0.022667 81.207
           0.022616 70.830 0.022667 81.207 0.999487 -17.65
4.72000000 0.010335 82.779 0.999688 -10.93 0.022712 70.748
           0.999688 -10.93 0.010221 78.161 0.022763 81.170
           0.022712 70.748 0.022763 81.170 0.999483 -17.72
4.74000000 0.010379 82.748 0.999686 -10.98 0.022808 70.667
           0.999686 -10.98 0.010264 78.110 0.022860 81.132
           0.022808 70.667 0.022860 81.132 0.999479 -17.80
4.76000000 0.010424 82.716 0.999683 -11.03 0.022903 70.585
           0.999683 -11.03 0.010307 78.060 0.022956 81.095
           0.022903 70.585 0.022956 81.095 0.999474 -17.87
4.78000000 0.010468 82.685 0.999680 -11.07 0.022999 70.503
           0.999680 -11.07 0.010350 78.010 0.023053 81.057
           0.022999 70.503 0.023053 81.057 0.999470 -17.95
4.80000000 0.010512 82.654 0.999678 -11.12 0.023095 70.422
           0.999678 -11.12 0.010392 77.960 0.023149 81.019
           0.023095 70.422 0.023149 81.019 0.999465 -18.02
4.82000000 0.010556 82.623 0.999675 -11.17 0.023191 70.340
           0.999675 -11.17 0.010435 77.910 0.023246 80.982
           0.023191 70.340 0.023246 80.982 0.999461 -18.10
4.84000000 0.010601 82.592 0.999672 -11.21 0.023287 70.258
           0.999672 -11.21 0.010478 77.860 0.023343 80.944
           0.023287 70.258 0.023343 80.944 0.999456 -18.17
4.86000000 0.010645 82.560 0.999670 -11.26 0.023383 70.177
           0.999670 -11.26 0.010521 77.810 0.023439 80.906
           0.023383 70.177 0.023439 80.906 0.999452 -18.25
4.88000000 0.010689 82.529 0.999667 -11.31 0.023479 70.095
           0.999667 -11.31 0.010563 77.760 0.023536 80.869
           0.023479 70.095 0.023536 80.869 0.999447 -18.32
4.90000000 0.010733 82.498 0.999664 -11.35 0.023575 70.013
           0.999664 -11.35 0.010606 77.709 0.023632 80.831
           0.023575 70.013 0.023632 80.831 0.999443 -18.40
4.92000000 0.010778 82.467 0.999661 -11.40 0.023671 69.932
           0.999661 -11.40 0.010649 77.659 0.023729 80.794
           0.023671 69.932 0.023729 80.794 0.999438 -18.47
4.94000000 0.010822 82.435 0.999659 -11.44 0.023766 69.850
           0.999659 -11.44 0.010692 77.609 0.023825 80.756
           0.023766 69.850 0.023825 80.756 0.999434 -18.55
4.96000000 0.010866 82.404 0.999656 -11.49 0.023862 69.768
           0.999656 -11.49 0.010734 77.559 0.023922 80.718
           0.023862 69.768 0.023922 80.718 0.999429 -18.62
4.98000000 0.010911 82.373 0.999653 -11.54 0.023958 69.686
           0.999653 -11.54 0.010777 77.509 0.024019 80.681
           0.023958 69.686 0.024019 80.681 0.999425 -18.70
5.00000000 0.010955 82.342 0.999650 -11.58 0.024054 69.605
           0.999650 -11.58 0.010820 77.459 0.024115 80.643
           0.024054 69.605 0.024115 80.643 0.999420 -18.78
5.02000000 0.010999 82.310 0.999648 -11.63 0.024150 69.523
           0.999648 -11.63 0.010862 77.409 0.024212 80.605
           0.024150 69.523 0.024212 80.605 0.999415 -18.85
5.04000000 0.011043 82.279 0.999645 -11.68 0.024246 69.441
           0.999645 -11.68 0.010905 77.359 0.024308 80.568
           0.024246 69.441 0.024308 80.568 0.999411 -18.93
5.06000000 0.011088 82.248 0.999642 -11.72 0.024342 69.360
           0.999642 -11.72 0.010948 77.308 0.024405 80.530
           0.024342 69.360 0.024405 80.530 0.999406 -19.00
5.08000000 0.011132 82.217 0.999639 -11.77 0.024437 69.278
           0.999639 -11.77 0.010990 77.258 0.024501 80.492
           0.024437 69.278 0.024501 80.492 0.999401 -19.08
5.10000000 0.011176 82.185 0.999636 -11.82 0.024533 69.196
           0.999636 -11.82 0.011033 77.208 0.024598 80.455
           0.024533 69.196 0.024598 80.455 0.999397 -19.15
5.12000000 0.011221 82.154 0.999633 -11.86 0.024629 69.115
           0.999633 -11.86 0.011076 77.158 0.024695 80.417
           0.024629 69.115 0.024695 80.417 0.999392 -19.23
5.14000000 0.011265 82.123 0.999631 -11.91 0.024725 69.033
           0.999631 -11.91 0.011118 77.108 0.024791 80.379
           0.024725 69.033 0.024791 80.379 0.999387 -19.30
5.16000000 0.011309 82.091 0.999628 -11.95 0.024821 68.951
           0.999628 -11.95 0.011161 77.058 0.024888 80.342
           0.024821 68.951 0.024888 80.342 0.999382 -19.38
5.18000000 0.011354 82.060 0.999625 -12.00 0.024916 68.869
           0.999625 -12.00 0.011204 77.008 0.024984 80.304
           0.024916 68.869 0.024984 80.304 0.999377 -19.45
5.20000000 0.011398 82.029 0.999622 -12.05 0.025012 68.788
           0.999622 -12.05 0.011246 76.958 0.025081 80.266
           0.025012 68.788 0.025081 80.266 0.999373 -19.53
5.22000000 0.011442 81.997 0.999619 -12.09 0.025108 68.706
           0.999619 -12.09 0.011289 76.908 0.025178 80.229
           0.025108 68.706 0.025178 80.229 0.999368 -19.60
5.24000000 0.011487 81.966 0.999616 -12.14 0.025204 68.624
           0.999616 -12.14 0.011331 76.857 0.025274 80.191
           0.025204 68.624 0.025274 80.191 0.999363 -19.68
5.26000000 0.011531 81.935 0.999613 -12.19 0.025300 68.543
           0.999613 -12.19 0.011374 76.807 0.025371 80.153
           0.025300 68.543 0.025371 80.153 0.999358 -19.75
5.28000000 0.011576 81.903 0.999610 -12.23 0.025395 68.461
           0.999610 -12.23 0.011417 76.757 0.025467 80.116
           0.025395 68.461 0.025467 80.116 0.999353 -19.83
5.30000000 0.011620 81.872 0.999607 -12.28 0.025491 68.379
           0.999607 -12.28 0.011459 76.707 0.025564 80.078
           0.025491 68.379 0.025564 80.078 0.999348 -19.91
5.32000000 0.011664 81.841 0.999604 -12.32 0.025587 68.297
           0.999604 -12.32 0.011502 76.657 0.025661 80.040
           0.025587 68.297 0.025661 80.040 0.999343 -19.98
5.34000000 0.011709 81.809 0.999601 -12.37 0.025683 68.216
           0.999601 -12.37 0.011544 76.607 0.025757 80.002
           0.025683 68.216 0.025757 80.002 0.999338 -20.06
5.36000000 0.011753 81.778 0.999598 -12.42 0.025779 68.134
           0.999598 -12.42 0.011587 76.557 0.025854 79.965
           0.025779 68.134 0.025854 79.965 0.999333 -20.13
5.38000000 0.011798 81.746 0.999595 -12.46 0.025874 68.052
           0.999595 -12.46 0.011629 76.507 0.025950 79.927
           0.025874 68.052 0.025950 79.927 0.999328 -20.21
5.40000000 0.011842 81.715 0.999592 -12.51 0.025970 67.970
           0.999592 -12.51 0.011672 76.457 0.026047 79.889
           0.025970 67.970 0.026047 79.889 0.999323 -20.28
5.42000000 0.011886 81.683 0.999589 -12.56 0.026066 67.889
           0.999589 -12.56 0.011714 76.407 0.026144 79.852
           0.026066 67.889 0.026144 79.852 0.999318 -20.36
5.44000000 0.011931 81.652 0.999586 -12.60 0.026162 67.807
           0.999586 -12.60 0.011757 76.356 0.026240 79.814
           0.026162 67.807 0.026240 79.814 0.999313 -20.43
5.46000000 0.011975 81.621 0.999583 -12.65 0.026257 67.725
           0.999583 -12.65 0.011800 76.306 0.026337 79.776
           0.026257 67.725 0.026337 79.776 0.999308 -20.51
5.48000000 0.012020 81.589 0.999580 -12.70 0.026353 67.644
           0.999580 -12.70 0.011842 76.256 0.026433 79.738
           0.026353 67.644 0.026433 79.738 0.999303 -20.58
5.50000000 0.012064 81.558 0.999577 -12.74 0.026449 67.562
           0.999577 -12.74 0.011885 76.206 0.026530 79.701
           0.026449 67.562 0.026530 79.701 0.999298 -20.66
5.52000000 0.012109 81.526 0.999574 -12.79 0.026545 67.480
           0.999574 -12.79 0.011927 76.156 0.026627 79.663
           0.026545 67.480 0.026627 79.663 0.999293 -20.73
5.54000000 0.012153 81.495 0.999571 -12.83 0.026640 67.398
           0.999571 -12.83 0.011970 76.106 0.026723 79.625
           0.026640 67.398 0.026723 79.625 0.999288 -20.81
5.56000000 0.012197 81.463 0.999568 -12.88 0.026736 67.317
           0.999568 -12.88 0.012012 76.056 0.026820 79.588
           0.026736 67.317 0.026820 79.588 0.999283 -20.89
5.58000000 0.012242 81.432 0.999565 -12.93 0.026832 67.235
           0.999565 -12.93 0.012054 76.006 0.026916 79.550
           0.026832 67.235 0.026916 79.550 0.999278 -20.96
5.60000000 0.012286 81.400 0.999562 -12.97 0.026927 67.153
           0.999562 -12.97 0.012097 75.956 0.027013 79.512
           0.026927 67.153 0.027013 79.512 0.999272 -21.04
5.62000000 0.012331 81.369 0.999559 -13.02 0.027023 67.071
           0.999559 -13.02 0.012139 75.906 0.027110 79.474
           0.027023 67.071 0.027110 79.474 0.999267 -21.11
5.64000000 0.012375 81.337 0.999556 -13.07 0.027119 66.990
           0.999556 -13.07 0.012182 75.855 0.027206 79.437
           0.027119 66.990 0.027206 79.437 0.999262 -21.19
5.66000000 0.012420 81.306 0.999552 -13.11 0.027215 66.908
           0.999552 -13.11 0.012224 75.805 0.027303 79.399
           0.027215 66.908 0.027303 79.399 0.999257 -21.26
5.68000000 0.012464 81.274 0.999549 -13.16 0.027310 66.826
           0.999549 -13.16 0.012267 75.755 0.027400 79.361
           0.027310 66.826 0.027400 79.361 0.999251 -21.34
!< P1 F=5.68 Eeff=(8.78707112 0.0) Z0=(48.6609361 0.0) R=0.0 C=0.00428958 
!< P2 F=5.68 Eeff=(8.78556486 0.0) Z0=(48.6548694 0.0) R=0.0 C=0.00428951 
!< P3 F=5.68 Eeff=(8.01878205 0.0) Z0=(52.9904271 0.0) R=0.0 C=0.00476187 
5.70000000 0.012509 81.243 0.999546 -13.20 0.027406 66.744
           0.999546 -13.20 0.012309 75.705 0.027496 79.323
           0.027406 66.744 0.027496 79.323 0.999246 -21.41
5.72000000 0.012553 81.211 0.999543 -13.25 0.027502 66.663
           0.999543 -13.25 0.012352 75.655 0.027593 79.286
           0.027502 66.663 0.027593 79.286 0.999241 -21.49
5.74000000 0.012598 81.180 0.999540 -13.30 0.027597 66.581
           0.999540 -13.30 0.012394 75.605 0.027689 79.248
           0.027597 66.581 0.027689 79.248 0.999236 -21.56
5.76000000 0.012642 81.148 0.999537 -13.34 0.027693 66.499
           0.999537 -13.34 0.012436 75.555 0.027786 79.210
           0.027693 66.499 0.027786 79.210 0.999230 -21.64
5.78000000 0.012687 81.116 0.999533 -13.39 0.027789 66.417
           0.999533 -13.39 0.012479 75.505 0.027883 79.172
           0.027789 66.417 0.027883 79.172 0.999225 -21.71
5.80000000 0.012731 81.085 0.999530 -13.44 0.027884 66.336
           0.999530 -13.44 0.012521 75.455 0.027979 79.135
           0.027884 66.336 0.027979 79.135 0.999219 -21.79
5.82000000 0.012776 81.053 0.999527 -13.48 0.027980 66.254
           0.999527 -13.48 0.012564 75.405 0.028076 79.097
           0.027980 66.254 0.028076 79.097 0.999214 -21.87
5.84000000 0.012820 81.022 0.999524 -13.53 0.028076 66.172
           0.999524 -13.53 0.012606 75.354 0.028173 79.059
           0.028076 66.172 0.028173 79.059 0.999209 -21.94
5.86000000 0.012865 80.990 0.999520 -13.58 0.028171 66.090
           0.999520 -13.58 0.012648 75.304 0.028269 79.021
           0.028171 66.090 0.028269 79.021 0.999203 -22.02
5.88000000 0.012910 80.958 0.999517 -13.62 0.028267 66.009
           0.999517 -13.62 0.012691 75.254 0.028366 78.983
           0.028267 66.009 0.028366 78.983 0.999198 -22.09
5.90000000 0.012954 80.927 0.999514 -13.67 0.028363 65.927
           0.999514 -13.67 0.012733 75.204 0.028463 78.946
           0.028363 65.927 0.028463 78.946 0.999192 -22.17
5.92000000 0.012999 80.895 0.999511 -13.71 0.028458 65.845
           0.999511 -13.71 0.012775 75.154 0.028559 78.908
           0.028458 65.845 0.028559 78.908 0.999187 -22.24
5.94000000 0.013043 80.863 0.999507 -13.76 0.028554 65.763
           0.999507 -13.76 0.012818 75.104 0.028656 78.870
           0.028554 65.763 0.028656 78.870 0.999181 -22.32
5.96000000 0.013088 80.832 0.999504 -13.81 0.028649 65.682
           0.999504 -13.81 0.012860 75.054 0.028752 78.832
           0.028649 65.682 0.028752 78.832 0.999176 -22.39
5.98000000 0.013132 80.800 0.999501 -13.85 0.028745 65.600
           0.999501 -13.85 0.012902 75.004 0.028849 78.794
           0.028745 65.600 0.028849 78.794 0.999170 -22.47
6.00000000 0.013177 80.768 0.999497 -13.90 0.028841 65.518
           0.999497 -13.90 0.012945 74.954 0.028946 78.757
           0.028841 65.518 0.028946 78.757 0.999165 -22.54
6.02000000 0.013222 80.737 0.999494 -13.95 0.028936 65.436
           0.999494 -13.95 0.012987 74.904 0.029042 78.719
           0.028936 65.436 0.029042 78.719 0.999159 -22.62
6.04000000 0.013266 80.705 0.999491 -13.99 0.029032 65.354
           0.999491 -13.99 0.013029 74.853 0.029139 78.681
           0.029032 65.354 0.029139 78.681 0.999154 -22.70
6.06000000 0.013311 80.673 0.999487 -14.04 0.029127 65.273
           0.999487 -14.04 0.013071 74.803 0.029236 78.643
           0.029127 65.273 0.029236 78.643 0.999148 -22.77
6.08000000 0.013355 80.641 0.999484 -14.08 0.029223 65.191
           0.999484 -14.08 0.013114 74.753 0.029332 78.605
           0.029223 65.191 0.029332 78.605 0.999142 -22.85
6.10000000 0.013400 80.610 0.999480 -14.13 0.029319 65.109
           0.999480 -14.13 0.013156 74.703 0.029429 78.567
           0.029319 65.109 0.029429 78.567 0.999137 -22.92
6.12000000 0.013445 80.578 0.999477 -14.18 0.029414 65.027
           0.999477 -14.18 0.013198 74.653 0.029526 78.530
           0.029414 65.027 0.029526 78.530 0.999131 -23.00
6.14000000 0.013489 80.546 0.999474 -14.22 0.029510 64.946
           0.999474 -14.22 0.013240 74.603 0.029622 78.492
           0.029510 64.946 0.029622 78.492 0.999125 -23.07
6.16000000 0.013534 80.514 0.999470 -14.27 0.029605 64.864
           0.999470 -14.27 0.013283 74.553 0.029719 78.454
           0.029605 64.864 0.029719 78.454 0.999120 -23.15
6.18000000 0.013579 80.483 0.999467 -14.32 0.029701 64.782
           0.999467 -14.32 0.013325 74.503 0.029816 78.416
           0.029701 64.782 0.029816 78.416 0.999114 -23.22
6.20000000 0.013623 80.451 0.999463 -14.36 0.029796 64.700
           0.999463 -14.36 0.013367 74.453 0.029912 78.378
           0.029796 64.700 0.029912 78.378 0.999108 -23.30
6.22000000 0.013668 80.419 0.999460 -14.41 0.029892 64.618
           0.999460 -14.41 0.013409 74.403 0.030009 78.340
           0.029892 64.618 0.030009 78.340 0.999102 -23.38
6.24000000 0.013713 80.387 0.999456 -14.46 0.029987 64.537
           0.999456 -14.46 0.013452 74.352 0.030105 78.303
           0.029987 64.537 0.030105 78.303 0.999097 -23.45
6.26000000 0.013757 80.355 0.999453 -14.50 0.030083 64.455
           0.999453 -14.50 0.013494 74.302 0.030202 78.265
           0.030083 64.455 0.030202 78.265 0.999091 -23.53
6.28000000 0.013802 80.323 0.999449 -14.55 0.030179 64.373
           0.999449 -14.55 0.013536 74.252 0.030299 78.227
           0.030179 64.373 0.030299 78.227 0.999085 -23.60
6.30000000 0.013847 80.292 0.999446 -14.59 0.030274 64.291
           0.999446 -14.59 0.013578 74.202 0.030395 78.189
           0.030274 64.291 0.030395 78.189 0.999079 -23.68
6.32000000 0.013891 80.260 0.999442 -14.64 0.030370 64.210
           0.999442 -14.64 0.013620 74.152 0.030492 78.151
           0.030370 64.210 0.030492 78.151 0.999073 -23.75
6.34000000 0.013936 80.228 0.999439 -14.69 0.030465 64.128
           0.999439 -14.69 0.013662 74.102 0.030589 78.113
           0.030465 64.128 0.030589 78.113 0.999068 -23.83
6.36000000 0.013981 80.196 0.999435 -14.73 0.030561 64.046
           0.999435 -14.73 0.013705 74.052 0.030685 78.075
           0.030561 64.046 0.030685 78.075 0.999062 -23.90
6.38000000 0.014025 80.164 0.999432 -14.78 0.030656 63.964
           0.999432 -14.78 0.013747 74.002 0.030782 78.038
           0.030656 63.964 0.030782 78.038 0.999056 -23.98
6.40000000 0.014070 80.132 0.999428 -14.83 0.030752 63.882
           0.999428 -14.83 0.013789 73.952 0.030879 78.000
           0.030752 63.882 0.030879 78.000 0.999050 -24.05
6.42000000 0.014115 80.100 0.999425 -14.87 0.030847 63.801
           0.999425 -14.87 0.013831 73.901 0.030975 77.962
           0.030847 63.801 0.030975 77.962 0.999044 -24.13
6.44000000 0.014160 80.068 0.999421 -14.92 0.030943 63.719
           0.999421 -14.92 0.013873 73.851 0.031072 77.924
           0.030943 63.719 0.031072 77.924 0.999038 -24.21
6.46000000 0.014204 80.036 0.999417 -14.96 0.031038 63.637
           0.999417 -14.96 0.013915 73.801 0.031169 77.886
           0.031038 63.637 0.031169 77.886 0.999032 -24.28
6.48000000 0.014249 80.004 0.999414 -15.01 0.031134 63.555
           0.999414 -15.01 0.013957 73.751 0.031265 77.848
           0.031134 63.555 0.031265 77.848 0.999026 -24.36
6.50000000 0.014294 79.972 0.999410 -15.06 0.031229 63.473
           0.999410 -15.06 0.013999 73.701 0.031362 77.810
           0.031229 63.473 0.031362 77.810 0.999020 -24.43
6.52000000 0.014339 79.940 0.999407 -15.10 0.031324 63.392
           0.999407 -15.10 0.014041 73.651 0.031459 77.772
           0.031324 63.392 0.031459 77.772 0.999014 -24.51
6.54000000 0.014383 79.908 0.999403 -15.15 0.031420 63.310
           0.999403 -15.15 0.014084 73.601 0.031555 77.734
           0.031420 63.310 0.031555 77.734 0.999008 -24.58
6.56000000 0.014428 79.876 0.999399 -15.20 0.031515 63.228
           0.999399 -15.20 0.014126 73.551 0.031652 77.696
           0.031515 63.228 0.031652 77.696 0.999002 -24.66
6.58000000 0.014473 79.844 0.999396 -15.24 0.031611 63.146
           0.999396 -15.24 0.014168 73.501 0.031749 77.659
           0.031611 63.146 0.031749 77.659 0.998996 -24.73
6.60000000 0.014518 79.812 0.999392 -15.29 0.031706 63.064
           0.999392 -15.29 0.014210 73.450 0.031845 77.621
           0.031706 63.064 0.031845 77.621 0.998990 -24.81
6.62000000 0.014563 79.780 0.999388 -15.34 0.031802 62.983
           0.999388 -15.34 0.014252 73.400 0.031942 77.583
           0.031802 62.983 0.031942 77.583 0.998984 -24.89
6.64000000 0.014607 79.748 0.999385 -15.38 0.031897 62.901
           0.999385 -15.38 0.014294 73.350 0.032039 77.545
           0.031897 62.901 0.032039 77.545 0.998977 -24.96
6.66000000 0.014652 79.716 0.999381 -15.43 0.031992 62.819
           0.999381 -15.43 0.014336 73.300 0.032135 77.507
           0.031992 62.819 0.032135 77.507 0.998971 -25.04
6.68000000 0.014697 79.684 0.999377 -15.47 0.032088 62.737
           0.999377 -15.47 0.014378 73.250 0.032232 77.469
           0.032088 62.737 0.032232 77.469 0.998965 -25.11
6.70000000 0.014742 79.652 0.999373 -15.52 0.032183 62.655
           0.999373 -15.52 0.014420 73.200 0.032329 77.431
           0.032183 62.655 0.032329 77.431 0.998959 -25.19
6.72000000 0.014787 79.620 0.999370 -15.57 0.032279 62.574
           0.999370 -15.57 0.014462 73.150 0.032426 77.393
           0.032279 62.574 0.032426 77.393 0.998953 -25.26
6.74000000 0.014831 79.588 0.999366 -15.61 0.032374 62.492
           0.999366 -15.61 0.014504 73.099 0.032522 77.355
           0.032374 62.492 0.032522 77.355 0.998947 -25.34
6.76000000 0.014876 79.556 0.999362 -15.66 0.032469 62.410
           0.999362 -15.66 0.014546 73.049 0.032619 77.317
           0.032469 62.410 0.032619 77.317 0.998940 -25.41
6.78000000 0.014921 79.524 0.999358 -15.71 0.032565 62.328
           0.999358 -15.71 0.014588 72.999 0.032716 77.279
           0.032565 62.328 0.032716 77.279 0.998934 -25.49
6.80000000 0.014966 79.492 0.999355 -15.75 0.032660 62.246
           0.999355 -15.75 0.014630 72.949 0.032812 77.241
           0.032660 62.246 0.032812 77.241 0.998928 -25.57
6.82000000 0.015011 79.459 0.999351 -15.80 0.032756 62.164
           0.999351 -15.80 0.014672 72.899 0.032909 77.203
           0.032756 62.164 0.032909 77.203 0.998921 -25.64
6.84000000 0.015056 79.427 0.999347 -15.84 0.032851 62.083
           0.999347 -15.84 0.014713 72.849 0.033006 77.165
           0.032851 62.083 0.033006 77.165 0.998915 -25.72
6.86000000 0.015101 79.395 0.999343 -15.89 0.032946 62.001
           0.999343 -15.89 0.014755 72.799 0.033102 77.127
           0.032946 62.001 0.033102 77.127 0.998909 -25.79
6.88000000 0.015145 79.363 0.999339 -15.94 0.033042 61.919
           0.999339 -15.94 0.014797 72.749 0.033199 77.089
           0.033042 61.919 0.033199 77.089 0.998902 -25.87
6.90000000 0.015190 79.331 0.999336 -15.98 0.033137 61.837
           0.999336 -15.98 0.014839 72.698 0.033296 77.051
           0.033137 61.837 0.033296 77.051 0.998896 -25.94
6.92000000 0.015235 79.298 0.999332 -16.03 0.033232 61.755
           0.999332 -16.03 0.014881 72.648 0.033392 77.013
           0.033232 61.755 0.033392 77.013 0.998890 -26.02
6.94000000 0.015280 79.266 0.999328 -16.08 0.033328 61.673
           0.999328 -16.08 0.014923 72.598 0.033489 76.975
           0.033328 61.673 0.033489 76.975 0.998883 -26.10
6.96000000 0.015325 79.234 0.999324 -16.12 0.033423 61.592
           0.999324 -16.12 0.014965 72.548 0.033586 76.937
           0.033423 61.592 0.033586 76.937 0.998877 -26.17
6.98000000 0.015370 79.202 0.999320 -16.17 0.033518 61.510
           0.999320 -16.17 0.015007 72.498 0.033683 76.899
           0.033518 61.510 0.033683 76.899 0.998870 -26.25
7.00000000 0.015415 79.169 0.999316 -16.22 0.033614 61.428
           0.999316 -16.22 0.015049 72.448 0.033779 76.861
           0.033614 61.428 0.033779 76.861 0.998864 -26.32
7.02000000 0.015460 79.137 0.999312 -16.26 0.033709 61.346
           0.999312 -16.26 0.015090 72.398 0.033876 76.823
           0.033709 61.346 0.033876 76.823 0.998857 -26.40
7.04000000 0.015505 79.105 0.999308 -16.31 0.033804 61.264
           0.999308 -16.31 0.015132 72.347 0.033973 76.785
           0.033804 61.264 0.033973 76.785 0.998851 -26.47
7.06000000 0.015550 79.073 0.999304 -16.35 0.033900 61.182
           0.999304 -16.35 0.015174 72.297 0.034069 76.747
           0.033900 61.182 0.034069 76.747 0.998844 -26.55
7.08000000 0.015595 79.040 0.999300 -16.40 0.033995 61.101
           0.999300 -16.40 0.015216 72.247 0.034166 76.709
           0.033995 61.101 0.034166 76.709 0.998838 -26.62
7.10000000 0.015640 79.008 0.999296 -16.45 0.034090 61.019
           0.999296 -16.45 0.015258 72.197 0.034263 76.671
           0.034090 61.019 0.034263 76.671 0.998831 -26.70
7.12000000 0.015685 78.976 0.999292 -16.49 0.034185 60.937
           0.999292 -16.49 0.015300 72.147 0.034359 76.633
           0.034185 60.937 0.034359 76.633 0.998825 -26.78
!< P1 F=7.12 Eeff=(8.78709524 0.0) Z0=(48.660989 0.0) R=0.0 C=0.00428958 
!< P2 F=7.12 Eeff=(8.78558897 0.0) Z0=(48.6549222 0.0) R=0.0 C=0.00428952 
!< P3 F=7.12 Eeff=(8.01881094 0.0) Z0=(52.9903972 0.0) R=0.0 C=0.00476188 
7.14000000 0.015730 78.943 0.999288 -16.54 0.034281 60.855
           0.999288 -16.54 0.015341 72.097 0.034456 76.595
           0.034281 60.855 0.034456 76.595 0.998818 -26.85
7.16000000 0.015775 78.911 0.999284 -16.59 0.034376 60.773
           0.999284 -16.59 0.015383 72.047 0.034553 76.557
           0.034376 60.773 0.034553 76.557 0.998811 -26.93
7.18000000 0.015820 78.879 0.999280 -16.63 0.034471 60.691
           0.999280 -16.63 0.015425 71.996 0.034650 76.519
           0.034471 60.691 0.034650 76.519 0.998805 -27.00
7.20000000 0.015865 78.846 0.999276 -16.68 0.034566 60.609
           0.999276 -16.68 0.015467 71.946 0.034746 76.481
           0.034566 60.609 0.034746 76.481 0.998798 -27.08
7.22000000 0.015910 78.814 0.999272 -16.72 0.034662 60.528
           0.999272 -16.72 0.015508 71.896 0.034843 76.443
           0.034662 60.528 0.034843 76.443 0.998792 -27.15
7.24000000 0.015955 78.782 0.999268 -16.77 0.034757 60.446
           0.999268 -16.77 0.015550 71.846 0.034940 76.405
           0.034757 60.446 0.034940 76.405 0.998785 -27.23