! Sonnet Data File
! From: em Version : 15.52
! From Project: CPW_gap_coupler_3port_1um_FL_TS_6um_finer
! Data is De-embedded 
! Data File Written: 08/14/2018 18:07:51
!< HDATE 08/14/2018 17:46:56
!< MDATE 08/14/2018 17:46:56
!< PARAMS
!< gap = 2.0
!< cpwS = 5.0
!< cpwS1 = 5.0
!< feedW = 12.0
!< feedS1 = 5.0
!< cond_length = 344.0
!< inner_length = 326.0
!< hangerW = 12.0000175
!< open_gap = 22.0
!< coupler_length = 350.0
!< END PARAMS
# GHZ S MA R 50.00000
4.00000000 0.006820 84.159 0.999904 -9.199 0.012059 79.253
           0.999904 -9.199 0.006806 78.661 0.012067 81.983
           0.012059 79.253 0.012067 81.983 0.999854 -9.954
!< P1 F=4.0 Eeff=(8.78704973 0.0) Z0=(48.6608892 0.0) R=0.0 C=0.00428958 
!< P2 F=4.0 Eeff=(8.7855435 0.0) Z0=(48.6548225 0.0) R=0.0 C=0.00428951 
!< P3 F=4.0 Eeff=(8.02782617 0.0) Z0=(53.0244418 0.0) R=0.0 C=0.00476239 
4.02000000 0.006854 84.130 0.999903 -9.245 0.012119 79.199
           0.999903 -9.245 0.006840 78.604 0.012127 81.943
           0.012119 79.199 0.012127 81.943 0.999853 -10.00
4.04000000 0.006888 84.101 0.999902 -9.291 0.012180 79.145
           0.999902 -9.291 0.006874 78.548 0.012188 81.903
           0.012180 79.145 0.012188 81.903 0.999852 -10.05
4.06000000 0.006922 84.071 0.999901 -9.337 0.012240 79.091
           0.999901 -9.337 0.006907 78.491 0.012248 81.862
           0.012240 79.091 0.012248 81.862 0.999850 -10.10
4.08000000 0.006956 84.042 0.999900 -9.383 0.012300 79.038
           0.999900 -9.383 0.006941 78.434 0.012308 81.822
           0.012300 79.038 0.012308 81.822 0.999849 -10.15
4.10000000 0.006990 84.013 0.999899 -9.429 0.012360 78.984
           0.999899 -9.429 0.006975 78.377 0.012369 81.782
           0.012360 78.984 0.012369 81.782 0.999847 -10.20
4.12000000 0.007024 83.984 0.999898 -9.475 0.012421 78.930
           0.999898 -9.475 0.007009 78.321 0.012429 81.742
           0.012421 78.930 0.012429 81.742 0.999846 -10.25
4.14000000 0.007058 83.954 0.999897 -9.521 0.012481 78.876
           0.999897 -9.521 0.007043 78.264 0.012490 81.702
           0.012481 78.876 0.012490 81.702 0.999844 -10.30
4.16000000 0.007092 83.925 0.999896 -9.567 0.012541 78.823
           0.999896 -9.567 0.007077 78.207 0.012550 81.662
           0.012541 78.823 0.012550 81.662 0.999843 -10.35
4.18000000 0.007126 83.896 0.999895 -9.613 0.012601 78.769
           0.999895 -9.613 0.007110 78.150 0.012610 81.622
           0.012601 78.769 0.012610 81.622 0.999841 -10.40
4.20000000 0.007160 83.867 0.999894 -9.659 0.012662 78.715
           0.999894 -9.659 0.007144 78.094 0.012671 81.581
           0.012662 78.715 0.012671 81.581 0.999840 -10.45
4.22000000 0.007194 83.837 0.999893 -9.705 0.012722 78.661
           0.999893 -9.705 0.007178 78.037 0.012731 81.541
           0.012722 78.661 0.012731 81.541 0.999838 -10.50
4.24000000 0.007228 83.808 0.999892 -9.751 0.012782 78.608
           0.999892 -9.751 0.007212 77.980 0.012791 81.501
           0.012782 78.608 0.012791 81.501 0.999836 -10.55
4.26000000 0.007262 83.779 0.999891 -9.797 0.012842 78.554
           0.999891 -9.797 0.007246 77.923 0.012852 81.461
           0.012842 78.554 0.012852 81.461 0.999835 -10.60
4.28000000 0.007296 83.750 0.999890 -9.843 0.012903 78.500
           0.999890 -9.843 0.007279 77.867 0.012912 81.421
           0.012903 78.500 0.012912 81.421 0.999833 -10.65
4.30000000 0.007330 83.720 0.999889 -9.889 0.012963 78.446
           0.999889 -9.889 0.007313 77.810 0.012973 81.381
           0.012963 78.446 0.012973 81.381 0.999832 -10.70
4.32000000 0.007364 83.691 0.999888 -9.935 0.013023 78.392
           0.999888 -9.935 0.007347 77.753 0.013033 81.341
           0.013023 78.392 0.013033 81.341 0.999830 -10.75
4.34000000 0.007398 83.662 0.999887 -9.981 0.013083 78.339
           0.999887 -9.981 0.007381 77.697 0.013093 81.300
           0.013083 78.339 0.013093 81.300 0.999829 -10.80
4.36000000 0.007432 83.633 0.999886 -10.03 0.013144 78.285
           0.999886 -10.03 0.007414 77.640 0.013154 81.260
           0.013144 78.285 0.013154 81.260 0.999827 -10.85
4.38000000 0.007466 83.604 0.999885 -10.07 0.013204 78.231
           0.999885 -10.07 0.007448 77.583 0.013214 81.220
           0.013204 78.231 0.013214 81.220 0.999826 -10.90
4.40000000 0.007500 83.574 0.999884 -10.12 0.013264 78.177
           0.999884 -10.12 0.007482 77.526 0.013275 81.180
           0.013264 78.177 0.013275 81.180 0.999824 -10.95
4.42000000 0.007534 83.545 0.999883 -10.16 0.013324 78.124
           0.999883 -10.16 0.007516 77.470 0.013335 81.140
           0.013324 78.124 0.013335 81.140 0.999822 -11.00
4.44000000 0.007568 83.516 0.999882 -10.21 0.013385 78.070
           0.999882 -10.21 0.007549 77.413 0.013395 81.100
           0.013385 78.070 0.013395 81.100 0.999821 -11.05
4.46000000 0.007602 83.487 0.999881 -10.26 0.013445 78.016
           0.999881 -10.26 0.007583 77.356 0.013456 81.060
           0.013445 78.016 0.013456 81.060 0.999819 -11.10
4.48000000 0.007636 83.457 0.999880 -10.30 0.013505 77.962
           0.999880 -10.30 0.007617 77.300 0.013516 81.019
           0.013505 77.962 0.013516 81.019 0.999817 -11.15
4.50000000 0.007670 83.428 0.999879 -10.35 0.013565 77.909
           0.999879 -10.35 0.007651 77.243 0.013576 80.979
           0.013565 77.909 0.013576 80.979 0.999816 -11.20
4.52000000 0.007704 83.399 0.999877 -10.39 0.013626 77.855
           0.999877 -10.39 0.007684 77.186 0.013637 80.939
           0.013626 77.855 0.013637 80.939 0.999814 -11.25
4.54000000 0.007738 83.370 0.999876 -10.44 0.013686 77.801
           0.999876 -10.44 0.007718 77.130 0.013697 80.899
           0.013686 77.801 0.013697 80.899 0.999813 -11.30
4.56000000 0.007772 83.341 0.999875 -10.49 0.013746 77.747
           0.999875 -10.49 0.007752 77.073 0.013758 80.859
           0.013746 77.747 0.013758 80.859 0.999811 -11.35
4.58000000 0.007806 83.311 0.999874 -10.53 0.013806 77.693
           0.999874 -10.53 0.007786 77.016 0.013818 80.819
           0.013806 77.693 0.013818 80.819 0.999809 -11.40
4.60000000 0.007840 83.282 0.999873 -10.58 0.013866 77.640
           0.999873 -10.58 0.007819 76.959 0.013878 80.779
           0.013866 77.640 0.013878 80.779 0.999808 -11.45
4.62000000 0.007874 83.253 0.999872 -10.62 0.013927 77.586
           0.999872 -10.62 0.007853 76.903 0.013939 80.738
           0.013927 77.586 0.013939 80.738 0.999806 -11.50
4.64000000 0.007908 83.224 0.999871 -10.67 0.013987 77.532
           0.999871 -10.67 0.007887 76.846 0.013999 80.698
           0.013987 77.532 0.013999 80.698 0.999804 -11.55
4.66000000 0.007942 83.195 0.999870 -10.72 0.014047 77.478
           0.999870 -10.72 0.007920 76.789 0.014060 80.658
           0.014047 77.478 0.014060 80.658 0.999802 -11.60
4.68000000 0.007976 83.165 0.999869 -10.76 0.014107 77.425
           0.999869 -10.76 0.007954 76.733 0.014120 80.618
           0.014107 77.425 0.014120 80.618 0.999801 -11.65
4.70000000 0.008010 83.136 0.999868 -10.81 0.014168 77.371
           0.999868 -10.81 0.007988 76.676 0.014180 80.578
           0.014168 77.371 0.014180 80.578 0.999799 -11.70
4.72000000 0.008044 83.107 0.999866 -10.85 0.014228 77.317
           0.999866 -10.85 0.008022 76.619 0.014241 80.538
           0.014228 77.317 0.014241 80.538 0.999797 -11.75
4.74000000 0.008078 83.078 0.999865 -10.90 0.014288 77.263
           0.999865 -10.90 0.008055 76.563 0.014301 80.498
           0.014288 77.263 0.014301 80.498 0.999796 -11.80
4.76000000 0.008112 83.049 0.999864 -10.95 0.014348 77.209
           0.999864 -10.95 0.008089 76.506 0.014362 80.457
           0.014348 77.209 0.014362 80.457 0.999794 -11.85
4.78000000 0.008146 83.019 0.999863 -10.99 0.014409 77.156
           0.999863 -10.99 0.008123 76.449 0.014422 80.417
           0.014409 77.156 0.014422 80.417 0.999792 -11.90
4.80000000 0.008180 82.990 0.999862 -11.04 0.014469 77.102
           0.999862 -11.04 0.008156 76.393 0.014482 80.377
           0.014469 77.102 0.014482 80.377 0.999790 -11.95
4.82000000 0.008214 82.961 0.999861 -11.08 0.014529 77.048
           0.999861 -11.08 0.008190 76.336 0.014543 80.337
           0.014529 77.048 0.014543 80.337 0.999789 -12.00
4.84000000 0.008248 82.932 0.999860 -11.13 0.014589 76.994
           0.999860 -11.13 0.008224 76.279 0.014603 80.297
           0.014589 76.994 0.014603 80.297 0.999787 -12.05
4.86000000 0.008282 82.903 0.999858 -11.18 0.014650 76.941
           0.999858 -11.18 0.008257 76.223 0.014664 80.257
           0.014650 76.941 0.014664 80.257 0.999785 -12.10
!< P1 F=4.86 Eeff=(8.78705975 0.0) Z0=(48.6609111 0.0) R=0.0 C=0.00428958 
!< P2 F=4.86 Eeff=(8.78555349 0.0) Z0=(48.6548445 0.0) R=0.0 C=0.00428951 
!< P3 F=4.86 Eeff=(8.02784188 0.0) Z0=(53.0244477 0.0) R=0.0 C=0.00476239 
4.88000000 0.008316 82.873 0.999857 -11.22 0.014710 76.887
           0.999857 -11.22 0.008291 76.166 0.014724 80.217
           0.014710 76.887 0.014724 80.217 0.999783 -12.15
4.90000000 0.008350 82.844 0.999856 -11.27 0.014770 76.833
           0.999856 -11.27 0.008325 76.109 0.014784 80.176
           0.014770 76.833 0.014784 80.176 0.999782 -12.20
4.92000000 0.008384 82.815 0.999855 -11.31 0.014830 76.779
           0.999855 -11.31 0.008358 76.053 0.014845 80.136
           0.014830 76.779 0.014845 80.136 0.999780 -12.25
4.94000000 0.008418 82.786 0.999854 -11.36 0.014890 76.725
           0.999854 -11.36 0.008392 75.996 0.014905 80.096
           0.014890 76.725 0.014905 80.096 0.999778 -12.30
4.96000000 0.008452 82.757 0.999853 -11.41 0.014951 76.672
           0.999853 -11.41 0.008426 75.939 0.014966 80.056
           0.014951 76.672 0.014966 80.056 0.999776 -12.35
4.98000000 0.008486 82.727 0.999851 -11.45 0.015011 76.618
           0.999851 -11.45 0.008459 75.883 0.015026 80.016
           0.015011 76.618 0.015026 80.016 0.999774 -12.40
5.00000000 0.008520 82.698 0.999850 -11.50 0.015071 76.564
           0.999850 -11.50 0.008493 75.826 0.015086 79.976
           0.015071 76.564 0.015086 79.976 0.999773 -12.45
5.02000000 0.008554 82.669 0.999849 -11.54 0.015131 76.510
           0.999849 -11.54 0.008526 75.769 0.015147 79.935
           0.015131 76.510 0.015147 79.935 0.999771 -12.50
5.04000000 0.008588 82.640 0.999848 -11.59 0.015192 76.456
           0.999848 -11.59 0.008560 75.712 0.015207 79.895
           0.015192 76.456 0.015207 79.895 0.999769 -12.55
5.06000000 0.008622 82.611 0.999847 -11.64 0.015252 76.403
           0.999847 -11.64 0.008594 75.656 0.015268 79.855
           0.015252 76.403 0.015268 79.855 0.999767 -12.60
5.08000000 0.008656 82.581 0.999845 -11.68 0.015312 76.349
           0.999845 -11.68 0.008627 75.599 0.015328 79.815
           0.015312 76.349 0.015328 79.815 0.999765 -12.65
5.10000000 0.008690 82.552 0.999844 -11.73 0.015372 76.295
           0.999844 -11.73 0.008661 75.542 0.015388 79.775
           0.015372 76.295 0.015388 79.775 0.999763 -12.70
5.12000000 0.008724 82.523 0.999843 -11.77 0.015432 76.241
           0.999843 -11.77 0.008695 75.486 0.015449 79.735
           0.015432 76.241 0.015449 79.735 0.999762 -12.74
5.14000000 0.008758 82.494 0.999842 -11.82 0.015493 76.188
           0.999842 -11.82 0.008728 75.429 0.015509 79.694
           0.015493 76.188 0.015509 79.694 0.999760 -12.79
5.16000000 0.008792 82.465 0.999840 -11.87 0.015553 76.134
           0.999840 -11.87 0.008762 75.372 0.015570 79.654
           0.015553 76.134 0.015570 79.654 0.999758 -12.84
5.18000000 0.008826 82.435 0.999839 -11.91 0.015613 76.080
           0.999839 -11.91 0.008795 75.316 0.015630 79.614
           0.015613 76.080 0.015630 79.614 0.999756 -12.89
5.20000000 0.008859 82.406 0.999838 -11.96 0.015673 76.026
           0.999838 -11.96 0.008829 75.259 0.015690 79.574
           0.015673 76.026 0.015690 79.574 0.999754 -12.94
5.22000000 0.008893 82.377 0.999837 -12.00 0.015734 75.972
           0.999837 -12.00 0.008863 75.202 0.015751 79.534
           0.015734 75.972 0.015751 79.534 0.999752 -12.99
5.24000000 0.008927 82.348 0.999836 -12.05 0.015794 75.919
           0.999836 -12.05 0.008896 75.146 0.015811 79.494
           0.015794 75.919 0.015811 79.494 0.999750 -13.04
5.26000000 0.008961 82.319 0.999834 -12.10 0.015854 75.865
           0.999834 -12.10 0.008930 75.089 0.015872 79.453
           0.015854 75.865 0.015872 79.453 0.999748 -13.09
5.28000000 0.008995 82.289 0.999833 -12.14 0.015914 75.811
           0.999833 -12.14 0.008963 75.032 0.015932 79.413
           0.015914 75.811 0.015932 79.413 0.999746 -13.14
5.30000000 0.009029 82.260 0.999832 -12.19 0.015974 75.757
           0.999832 -12.19 0.008997 74.975 0.015993 79.373
           0.015974 75.757 0.015993 79.373 0.999744 -13.19
5.32000000 0.009063 82.231 0.999830 -12.23 0.016035 75.703
           0.999830 -12.23 0.009031 74.919 0.016053 79.333
           0.016035 75.703 0.016053 79.333 0.999743 -13.24
5.34000000 0.009097 82.202 0.999829 -12.28 0.016095 75.650
           0.999829 -12.28 0.009064 74.862 0.016113 79.293
           0.016095 75.650 0.016113 79.293 0.999741 -13.29
5.36000000 0.009131 82.173 0.999828 -12.33 0.016155 75.596
           0.999828 -12.33 0.009098 74.805 0.016174 79.253
           0.016155 75.596 0.016174 79.253 0.999739 -13.34
5.38000000 0.009165 82.143 0.999827 -12.37 0.016215 75.542
           0.999827 -12.37 0.009131 74.749 0.016234 79.212
           0.016215 75.542 0.016234 79.212 0.999737 -13.39
5.40000000 0.009199 82.114 0.999825 -12.42 0.016275 75.488
           0.999825 -12.42 0.009165 74.692 0.016295 79.172
           0.016275 75.488 0.016295 79.172 0.999735 -13.44
5.42000000 0.009233 82.085 0.999824 -12.46 0.016336 75.434
           0.999824 -12.46 0.009198 74.635 0.016355 79.132
           0.016336 75.434 0.016355 79.132 0.999733 -13.49
5.44000000 0.009267 82.056 0.999823 -12.51 0.016396 75.381
           0.999823 -12.51 0.009232 74.578 0.016416 79.092
           0.016396 75.381 0.016416 79.092 0.999731 -13.54
5.46000000 0.009301 82.027 0.999821 -12.56 0.016456 75.327
           0.999821 -12.56 0.009265 74.522 0.016476 79.052
           0.016456 75.327 0.016476 79.052 0.999729 -13.59
5.48000000 0.009335 81.997 0.999820 -12.60 0.016516 75.273
           0.999820 -12.60 0.009299 74.465 0.016536 79.011
           0.016516 75.273 0.016536 79.011 0.999727 -13.64
5.50000000 0.009369 81.968 0.999819 -12.65 0.016576 75.219
           0.999819 -12.65 0.009333 74.408 0.016597 78.971
           0.016576 75.219 0.016597 78.971 0.999725 -13.69
5.52000000 0.009403 81.939 0.999818 -12.69 0.016637 75.165
           0.999818 -12.69 0.009366 74.352 0.016657 78.931
           0.016637 75.165 0.016657 78.931 0.999723 -13.74
5.54000000 0.009436 81.910 0.999816 -12.74 0.016697 75.112
           0.999816 -12.74 0.009400 74.295 0.016718 78.891
           0.016697 75.112 0.016718 78.891 0.999721 -13.79
5.56000000 0.009470 81.880 0.999815 -12.79 0.016757 75.058
           0.999815 -12.79 0.009433 74.238 0.016778 78.851
           0.016757 75.058 0.016778 78.851 0.999719 -13.84
5.58000000 0.009504 81.851 0.999814 -12.83 0.016817 75.004
           0.999814 -12.83 0.009467 74.181 0.016838 78.811
           0.016817 75.004 0.016838 78.811 0.999717 -13.89
5.60000000 0.009538 81.822 0.999812 -12.88 0.016877 74.950
           0.999812 -12.88 0.009500 74.125 0.016899 78.770
           0.016877 74.950 0.016899 78.770 0.999715 -13.94
5.62000000 0.009572 81.793 0.999811 -12.92 0.016938 74.897
           0.999811 -12.92 0.009534 74.068 0.016959 78.730
           0.016938 74.897 0.016959 78.730 0.999713 -13.99
5.64000000 0.009606 81.763 0.999809 -12.97 0.016998 74.843
           0.999809 -12.97 0.009567 74.011 0.017020 78.690
           0.016998 74.843 0.017020 78.690 0.999711 -14.04
5.66000000 0.009640 81.734 0.999808 -13.02 0.017058 74.789
           0.999808 -13.02 0.009601 73.954 0.017080 78.650
           0.017058 74.789 0.017080 78.650 0.999709 -14.09
5.68000000 0.009674 81.705 0.999807 -13.06 0.017118 74.735
           0.999807 -13.06 0.009634 73.898 0.017141 78.610
           0.017118 74.735 0.017141 78.610 0.999707 -14.14
5.70000000 0.009708 81.676 0.999805 -13.11 0.017178 74.681
           0.999805 -13.11 0.009668 73.841 0.017201 78.569
           0.017178 74.681 0.017201 78.569 0.999704 -14.19
5.72000000 0.009742 81.646 0.999804 -13.15 0.017239 74.628
           0.999804 -13.15 0.009701 73.784 0.017261 78.529
           0.017239 74.628 0.017261 78.529 0.999702 -14.24
5.74000000 0.009776 81.617 0.999803 -13.20 0.017299 74.574
           0.999803 -13.20 0.009735 73.727 0.017322 78.489
           0.017299 74.574 0.017322 78.489 0.999700 -14.29
5.76000000 0.009810 81.588 0.999801 -13.25 0.017359 74.520
           0.999801 -13.25 0.009768 73.671 0.017382 78.449
           0.017359 74.520 0.017382 78.449 0.999698 -14.34
5.78000000 0.009844 81.559 0.999800 -13.29 0.017419 74.466
           0.999800 -13.29 0.009802 73.614 0.017443 78.409
           0.017419 74.466 0.017443 78.409 0.999696 -14.39
5.80000000 0.009878 81.529 0.999799 -13.34 0.017479 74.412
           0.999799 -13.34 0.009835 73.557 0.017503 78.368
           0.017479 74.412 0.017503 78.368 0.999694 -14.44
5.82000000 0.009912 81.500 0.999797 -13.38 0.017540 74.359
           0.999797 -13.38 0.009869 73.500 0.017564 78.328
           0.017540 74.359 0.017564 78.328 0.999692 -14.49
5.84000000 0.009945 81.471 0.999796 -13.43 0.017600 74.305
           0.999796 -13.43 0.009902 73.444 0.017624 78.288
           0.017600 74.305 0.017624 78.288 0.999690 -14.54
5.86000000 0.009979 81.442 0.999794 -13.48 0.017660 74.251
           0.999794 -13.48 0.009936 73.387 0.017685 78.248
           0.017660 74.251 0.017685 78.248 0.999688 -14.59
5.88000000 0.010013 81.412 0.999793 -13.52 0.017720 74.197
           0.999793 -13.52 0.009969 73.330 0.017745 78.208
           0.017720 74.197 0.017745 78.208 0.999686 -14.64
5.90000000 0.010047 81.383 0.999791 -13.57 0.017780 74.143
           0.999791 -13.57 0.010003 73.273 0.017805 78.167
           0.017780 74.143 0.017805 78.167 0.999683 -14.69
5.92000000 0.010081 81.354 0.999790 -13.61 0.017841 74.090
           0.999790 -13.61 0.010036 73.216 0.017866 78.127
           0.017841 74.090 0.017866 78.127 0.999681 -14.74
5.94000000 0.010115 81.324 0.999789 -13.66 0.017901 74.036
           0.999789 -13.66 0.010070 73.160 0.017926 78.087
           0.017901 74.036 0.017926 78.087 0.999679 -14.79
5.96000000 0.010149 81.295 0.999787 -13.71 0.017961 73.982
           0.999787 -13.71 0.010103 73.103 0.017987 78.047
           0.017961 73.982 0.017987 78.047 0.999677 -14.84
5.98000000 0.010183 81.266 0.999786 -13.75 0.018021 73.928
           0.999786 -13.75 0.010137 73.046 0.018047 78.007
           0.018021 73.928 0.018047 78.007 0.999675 -14.89
6.00000000 0.010217 81.237 0.999784 -13.80 0.018081 73.874
           0.999784 -13.80 0.010170 72.989 0.018108 77.966
           0.018081 73.874 0.018108 77.966 0.999673 -14.94
!< P1 F=6.0 Eeff=(8.78707598 0.0) Z0=(48.6609468 0.0) R=0.0 C=0.00428958 
!< P2 F=6.0 Eeff=(8.78556973 0.0) Z0=(48.65488 0.0) R=0.0 C=0.00428951 
!< P3 F=6.0 Eeff=(8.02786602 0.0) Z0=(53.0244528 0.0) R=0.0 C=0.0047624 
6.02000000 0.010251 81.207 0.999783 -13.84 0.018141 73.821
           0.999783 -13.84 0.010203 72.933 0.018168 77.926
           0.018141 73.821 0.018168 77.926 0.999670 -14.99
6.04000000 0.010285 81.178 0.999781 -13.89 0.018202 73.767
           0.999781 -13.89 0.010237 72.876 0.018229 77.886
           0.018202 73.767 0.018229 77.886 0.999668 -15.04
6.06000000 0.010319 81.149 0.999780 -13.94 0.018262 73.713
           0.999780 -13.94 0.010270 72.819 0.018289 77.846
           0.018262 73.713 0.018289 77.846 0.999666 -15.09
6.08000000 0.010352 81.120 0.999779 -13.98 0.018322 73.659
           0.999779 -13.98 0.010304 72.762 0.018349 77.806
           0.018322 73.659 0.018349 77.806 0.999664 -15.14
6.10000000 0.010386 81.091 0.999777 -14.03 0.018382 73.605
           0.999777 -14.03 0.010337 72.706 0.018410 77.765
           0.018382 73.605 0.018410 77.765 0.999662 -15.19
6.12000000 0.010420 81.062 0.999776 -14.07 0.018442 73.552
           0.999776 -14.07 0.010370 72.649 0.018470 77.725
           0.018442 73.552 0.018470 77.725 0.999659 -15.24
6.14000000 0.010454 81.033 0.999774 -14.12 0.018503 73.498
           0.999774 -14.12 0.010404 72.592 0.018531 77.685
           0.018503 73.498 0.018531 77.685 0.999657 -15.29
6.16000000 0.010488 81.003 0.999773 -14.17 0.018563 73.444
           0.999773 -14.17 0.010437 72.536 0.018591 77.645
           0.018563 73.444 0.018591 77.645 0.999655 -15.34
6.18000000 0.010522 80.974 0.999771 -14.21 0.018623 73.390
           0.999771 -14.21 0.010471 72.479 0.018652 77.604
           0.018623 73.390 0.018652 77.604 0.999653 -15.39
6.20000000 0.010556 80.945 0.999770 -14.26 0.018683 73.336
           0.999770 -14.26 0.010504 72.422 0.018712 77.564
           0.018683 73.336 0.018712 77.564 0.999650 -15.44
6.22000000 0.010589 80.916 0.999768 -14.30 0.018743 73.282
           0.999768 -14.30 0.010537 72.366 0.018773 77.524
           0.018743 73.282 0.018773 77.524 0.999648 -15.49
6.24000000 0.010623 80.887 0.999767 -14.35 0.018803 73.229
           0.999767 -14.35 0.010571 72.309 0.018833 77.484
           0.018803 73.229 0.018833 77.484 0.999646 -15.54
6.26000000 0.010657 80.858 0.999765 -14.40 0.018864 73.175
           0.999765 -14.40 0.010604 72.252 0.018893 77.444
           0.018864 73.175 0.018893 77.444 0.999644 -15.59
6.28000000 0.010691 80.829 0.999764 -14.44 0.018924 73.121
           0.999764 -14.44 0.010637 72.196 0.018954 77.403
           0.018924 73.121 0.018954 77.403 0.999641 -15.64
6.30000000 0.010725 80.799 0.999762 -14.49 0.018984 73.067
           0.999762 -14.49 0.010671 72.139 0.019014 77.363
           0.018984 73.067 0.019014 77.363 0.999639 -15.69
6.32000000 0.010759 80.770 0.999761 -14.53 0.019044 73.013
           0.999761 -14.53 0.010704 72.082 0.019075 77.323
           0.019044 73.013 0.019075 77.323 0.999637 -15.74
6.34000000 0.010793 80.741 0.999759 -14.58 0.019104 72.960
           0.999759 -14.58 0.010737 72.026 0.019135 77.283
           0.019104 72.960 0.019135 77.283 0.999634 -15.79
6.36000000 0.010826 80.712 0.999758 -14.63 0.019164 72.906
           0.999758 -14.63 0.010771 71.969 0.019196 77.242
           0.019164 72.906 0.019196 77.242 0.999632 -15.84
6.38000000 0.010860 80.683 0.999756 -14.67 0.019225 72.852
           0.999756 -14.67 0.010804 71.912 0.019256 77.202
           0.019225 72.852 0.019256 77.202 0.999630 -15.89
6.40000000 0.010894 80.654 0.999755 -14.72 0.019285 72.798
           0.999755 -14.72 0.010837 71.856 0.019317 77.162
           0.019285 72.798 0.019317 77.162 0.999627 -15.94
6.42000000 0.010928 80.625 0.999753 -14.76 0.019345 72.744
           0.999753 -14.76 0.010871 71.799 0.019377 77.122
           0.019345 72.744 0.019377 77.122 0.999625 -15.99
6.44000000 0.010962 80.595 0.999752 -14.81 0.019405 72.691
           0.999752 -14.81 0.010904 71.742 0.019438 77.082
           0.019405 72.691 0.019438 77.082 0.999623 -16.04
6.46000000 0.010996 80.566 0.999750 -14.86 0.019465 72.637
           0.999750 -14.86 0.010937 71.686 0.019498 77.041
           0.019465 72.637 0.019498 77.041 0.999620 -16.09
6.48000000 0.011030 80.537 0.999749 -14.90 0.019525 72.583
           0.999749 -14.90 0.010970 71.629 0.019559 77.001
           0.019525 72.583 0.019559 77.001 0.999618 -16.14
6.50000000 0.011063 80.508 0.999747 -14.95 0.019585 72.529
           0.999747 -14.95 0.011004 71.572 0.019619 76.961
           0.019585 72.529 0.019619 76.961 0.999616 -16.19
6.52000000 0.011097 80.479 0.999746 -14.99 0.019646 72.475
           0.999746 -14.99 0.011037 71.515 0.019679 76.921
           0.019646 72.475 0.019679 76.921 0.999613 -16.24
6.54000000 0.011131 80.450 0.999744 -15.04 0.019706 72.421
           0.999744 -15.04 0.011070 71.459 0.019740 76.880
           0.019706 72.421 0.019740 76.880 0.999611 -16.29
6.56000000 0.011165 80.421 0.999743 -15.09 0.019766 72.368
           0.999743 -15.09 0.011104 71.402 0.019800 76.840
           0.019766 72.368 0.019800 76.840 0.999609 -16.34
6.58000000 0.011199 80.391 0.999741 -15.13 0.019826 72.314
           0.999741 -15.13 0.011137 71.345 0.019861 76.800
           0.019826 72.314 0.019861 76.800 0.999606 -16.39
6.60000000 0.011233 80.362 0.999740 -15.18 0.019886 72.260
           0.999740 -15.18 0.011170 71.289 0.019921 76.760
           0.019886 72.260 0.019921 76.760 0.999604 -16.44
6.62000000 0.011266 80.333 0.999738 -15.22 0.019946 72.206
           0.999738 -15.22 0.011203 71.232 0.019982 76.719
           0.019946 72.206 0.019982 76.719 0.999601 -16.49
6.64000000 0.011300 80.304 0.999736 -15.27 0.020007 72.152
           0.999736 -15.27 0.011237 71.175 0.020042 76.679
           0.020007 72.152 0.020042 76.679 0.999599 -16.54
6.66000000 0.011334 80.275 0.999735 -15.32 0.020067 72.099
           0.999735 -15.32 0.011270 71.119 0.020103 76.639
           0.020067 72.099 0.020103 76.639 0.999597 -16.59
6.68000000 0.011368 80.246 0.999733 -15.36 0.020127 72.045
           0.999733 -15.36 0.011303 71.062 0.020163 76.599
           0.020127 72.045 0.020163 76.599 0.999594 -16.64
6.70000000 0.011402 80.216 0.999732 -15.41 0.020187 71.991
           0.999732 -15.41 0.011336 71.005 0.020224 76.558
           0.020187 71.991 0.020224 76.558 0.999592 -16.69
6.72000000 0.011436 80.187 0.999730 -15.45 0.020247 71.937
           0.999730 -15.45 0.011370 70.948 0.020284 76.518
           0.020247 71.937 0.020284 76.518 0.999589 -16.74
6.74000000 0.011469 80.158 0.999729 -15.50 0.020307 71.883
           0.999729 -15.50 0.011403 70.892 0.020345 76.478
           0.020307 71.883 0.020345 76.478 0.999587 -16.79
6.76000000 0.011503 80.129 0.999727 -15.55 0.020367 71.829
           0.999727 -15.55 0.011436 70.835 0.020405 76.438
           0.020367 71.829 0.020405 76.438 0.999584 -16.84
6.78000000 0.011537 80.100 0.999725 -15.59 0.020428 71.776
           0.999725 -15.59 0.011469 70.778 0.020466 76.397
           0.020428 71.776 0.020466 76.397 0.999582 -16.89
6.80000000 0.011571 80.071 0.999724 -15.64 0.020488 71.722
           0.999724 -15.64 0.011503 70.722 0.020526 76.357
           0.020488 71.722 0.020526 76.357 0.999579 -16.94
6.82000000 0.011605 80.041 0.999722 -15.68 0.020548 71.668
           0.999722 -15.68 0.011536 70.665 0.020587 76.317
           0.020548 71.668 0.020587 76.317 0.999577 -16.99
6.84000000 0.011639 80.012 0.999720 -15.73 0.020608 71.614
           0.999720 -15.73 0.011569 70.608 0.020647 76.277
           0.020608 71.614 0.020647 76.277 0.999574 -17.04
6.86000000 0.011672 79.983 0.999719 -15.78 0.020668 71.560
           0.999719 -15.78 0.011602 70.551 0.020708 76.236
           0.020668 71.560 0.020708 76.236 0.999572 -17.09
6.88000000 0.011706 79.954 0.999717 -15.82 0.020728 71.506
           0.999717 -15.82 0.011635 70.495 0.020768 76.196
           0.020728 71.506 0.020768 76.196 0.999569 -17.14
6.90000000 0.011740 79.925 0.999716 -15.87 0.020788 71.453
           0.999716 -15.87 0.011669 70.438 0.020829 76.156
           0.020788 71.453 0.020829 76.156 0.999567 -17.19
6.92000000 0.011774 79.895 0.999714 -15.91 0.020849 71.399
           0.999714 -15.91 0.011702 70.381 0.020889 76.116
           0.020849 71.399 0.020889 76.116 0.999564 -17.24
6.94000000 0.011808 79.866 0.999712 -15.96 0.020909 71.345
           0.999712 -15.96 0.011735 70.325 0.020949 76.075
           0.020909 71.345 0.020949 76.075 0.999562 -17.29
6.96000000 0.011841 79.837 0.999711 -16.01 0.020969 71.291
           0.999711 -16.01 0.011768 70.268 0.021010 76.035
           0.020969 71.291 0.021010 76.035 0.999559 -17.34
6.98000000 0.011875 79.808 0.999709 -16.05 0.021029 71.237
           0.999709 -16.05 0.011801 70.211 0.021070 75.995
           0.021029 71.237 0.021070 75.995 0.999557 -17.39
7.00000000 0.011909 79.779 0.999707 -16.10 0.021089 71.184
           0.999707 -16.10 0.011834 70.154 0.021131 75.955
           0.021089 71.184 0.021131 75.955 0.999554 -17.44
7.02000000 0.011943 79.749 0.999706 -16.14 0.021149 71.130
           0.999706 -16.14 0.011868 70.098 0.021191 75.914
           0.021149 71.130 0.021191 75.914 0.999552 -17.49
7.04000000 0.011977 79.720 0.999704 -16.19 0.021209 71.076
           0.999704 -16.19 0.011901 70.041 0.021252 75.874
           0.021209 71.076 0.021252 75.874 0.999549 -17.54
7.06000000 0.012010 79.691 0.999702 -16.24 0.021270 71.022
           0.999702 -16.24 0.011934 69.984 0.021312 75.834
           0.021270 71.022 0.021312 75.834 0.999547 -17.59
7.08000000 0.012044 79.662 0.999701 -16.28 0.021330 70.968
           0.999701 -16.28 0.011967 69.927 0.021373 75.794
           0.021330 70.968 0.021373 75.794 0.999544 -17.64
7.10000000 0.012078 79.632 0.999699 -16.33 0.021390 70.914
           0.999699 -16.33 0.012000 69.871 0.021433 75.753
           0.021390 70.914 0.021433 75.753 0.999541 -17.68
7.12000000 0.012112 79.603 0.999697 -16.37 0.021450 70.860
           0.999697 -16.37 0.012033 69.814 0.021494 75.713
           0.021450 70.860 0.021494 75.713 0.999539 -17.73
7.14000000 0.012146 79.574 0.999696 -16.42 0.021510 70.807
           0.999696 -16.42 0.012067 69.757 0.021554 75.673
           0.021510 70.807 0.021554 75.673 0.999536 -17.78
7.16000000 0.012179 79.545 0.999694 -16.47 0.021570 70.753
           0.999694 -16.47 0.012100 69.700 0.021615 75.633
           0.021570 70.753 0.021615 75.633 0.999534 -17.83
7.18000000 0.012213 79.515 0.999692 -16.51 0.021630 70.699
           0.999692 -16.51 0.012133 69.644 0.021675 75.592
           0.021630 70.699 0.021675 75.592 0.999531 -17.88
7.20000000 0.012247 79.486 0.999690 -16.56 0.021690 70.645
           0.999690 -16.56 0.012166 69.587 0.021736 75.552
           0.021690 70.645 0.021736 75.552 0.999528 -17.93
7.22000000 0.012281 79.457 0.999689 -16.60 0.021751 70.591
           0.999689 -16.60 0.012199 69.530 0.021796 75.512
           0.021751 70.591 0.021796 75.512 0.999526 -17.98
7.24000000 0.012315 79.428 0.999687 -16.65 0.021811 70.537
           0.999687 -16.65 0.012232 69.473 0.021857 75.472
           0.021811 70.537 0.021857 75.472 0.999523 -18.03